   * xtb version 6.2.3 (830e466) compiled by 'ehlert@majestix' on 2020-03-16
          program call               : xtb -c 0 -u 0 -a 1.0 --iterations 100 --opt normal --namespace product_9 /scratch/bell/zhao922/YARP/paper-example/potential_product/test/reaction_channel/pp_0/pp_14_1.xyz
          number of atoms            :                    12
          number of electrons        :                    36
          charge                     :                     0
          spin                       :                   0.0
          :  Hamiltonian                  GFN2-xTB          :
 * total energy  :   -21.6037937 Eh     change       -0.7281802E-08 Eh
 * total energy  :   -21.6091643 Eh     change       -0.5370594E-02 Eh
 * total energy  :   -21.6100240 Eh     change       -0.8596880E-03 Eh
 * total energy  :   -21.6107307 Eh     change       -0.7066766E-03 Eh
 * total energy  :   -21.6104298 Eh     change        0.3008336E-03 Eh
 * total energy  :   -21.6109889 Eh     change       -0.5590636E-03 Eh
 * total energy  :   -21.6111047 Eh     change       -0.1157804E-03 Eh
 * total energy  :   -21.6113090 Eh     change       -0.2043096E-03 Eh
 * total energy  :   -21.6113579 Eh     change       -0.4891797E-04 Eh
 * total energy  :   -21.6113943 Eh     change       -0.3636933E-04 Eh
 * total energy  :   -21.6133618 Eh     change       -0.1474090E-04 Eh
 * total energy  :   -21.6133729 Eh     change       -0.1116102E-04 Eh
 * total energy  :   -21.6133828 Eh     change       -0.9895201E-05 Eh
 * total energy  :   -21.6133918 Eh     change       -0.8967500E-05 Eh
 * total energy  :   -21.6134000 Eh     change       -0.8197704E-05 Eh
 * total energy  :   -21.6133952 Eh     change        0.4780765E-05 Eh
 * total energy  :   -21.6134008 Eh     change       -0.5573141E-05 Eh
 * total energy  :   -21.6134122 Eh     change       -0.1136541E-04 Eh
 * total energy  :   -21.6134161 Eh     change       -0.3907423E-05 Eh
   *** GEOMETRY OPTIMIZATION CONVERGED AFTER 55 ITERATIONS ***

 final structure:
================
12
 xtb: 6.2.3 (830e466)
C         1.04069191524689    1.21047782180088   -1.43870319909680
C         0.32014571124325    0.09551319040133   -0.72805552924508
C         1.14293398918487   -1.17200070186226   -0.76372971283503
O         0.52400561543319    1.94881817789168   -2.22859285150565
O         1.95440395958809    4.38952426078935   -2.97062142098606
O         2.29972059438894   -1.23588299316304   -0.47128059926057
H         1.40735734587567    4.94220751847839   -3.53221814881831
H         2.10731788973367    1.28729004093142   -1.17248358868055
H         1.45098745127189    3.58152684570785   -2.81018106567429
H         0.57848086499683   -2.06120228814043   -1.09807051851683
H        -0.67754816846160   -0.04820223256791   -1.14161162095017
H         0.24050283149685    0.40151035973134    0.31975825557155

          :  Hamiltonian                  GFN2-xTB          :
         :: total energy             -21.613416060262 Eh    ::
         :: gradient norm              0.000773344585 Eh/a0 ::
         :: HOMO-LUMO gap              3.396636802326 eV    ::
         :: SCC energy               -21.821877300182 Eh    ::
         :: -> dispersion             -0.004968621869 Eh    ::
         :: repulsion energy           0.208473544245 Eh    ::

    * Orbital Energies and Occupations

         #    Occupation            Energy/Eh            Energy/eV
      -------------------------------------------------------------
         1        2.0000           -0.7517637             -20.4565
       ...           ...                  ...                  ...
         6        2.0000           -0.6235553             -16.9678
         7        2.0000           -0.6056696             -16.4811
         8        2.0000           -0.5906015             -16.0711
         9        2.0000           -0.5753106             -15.6550
        10        2.0000           -0.5696159             -15.5000
        11        2.0000           -0.5500055             -14.9664
        12        2.0000           -0.5411757             -14.7261
        13        2.0000           -0.5341075             -14.5338
        14        2.0000           -0.5075849             -13.8121
        15        2.0000           -0.4879541             -13.2779
        16        2.0000           -0.4466625             -12.1543
        17        2.0000           -0.4294437             -11.6858
        18        2.0000           -0.4226040             -11.4996 (HOMO)
        19                         -0.2977799              -8.1030 (LUMO)
        20                         -0.2907214              -7.9109
        21                          0.0575236               1.5653
        22                          0.0757791               2.0621
        23                          0.1107843               3.0146
        24                          0.1155507               3.1443
        25                          0.1452975               3.9537
        26                          0.1967506               5.3539
        27                          0.2323804               6.3234
        28                          0.2839522               7.7267
        29                          0.5909624              16.0809
        30                          0.5986928              16.2913
      -------------------------------------------------------------
                  HL-Gap            0.1248241 Eh            3.3966 eV

     #   Z        covCN         q      C6AA      Î±(0)
     1   6 C      2.760     0.224    23.284     7.902
     2   6 C      3.802    -0.112    22.639     6.774
     3   6 C      2.760     0.216    23.429     7.927
     4   8 O      0.856    -0.315    20.055     6.004
     5   8 O      1.610    -0.586    24.862     6.730
     6   8 O      0.856    -0.298    19.744     5.957
     7   1 H      0.805     0.273     0.807     1.411
     8   1 H      0.923     0.059     2.209     2.324
     9   1 H      0.805     0.297     0.729     1.341
    10   1 H      0.922     0.041     2.439     2.443
    11   1 H      0.925     0.084     1.937     2.177
    12   1 H      0.924     0.116     1.644     2.005

Wiberg/Mayer (AO) data.
largest (>0.10) Wiberg bond orders for each atom
          total WBO             WBO to atom ...

molecular dipole:
                 x           y           z       tot (Debye)
 q only:       -1.164      -0.684       0.386
   full:       -1.497      -0.854       0.386       4.489

           -------------------------------------------------
          | TOTAL ENERGY              -21.613416060262 Eh   |
          | GRADIENT NORM               0.000773344585 Eh/Î± |
          | HOMO-LUMO GAP               3.396636802326 eV   |
           -------------------------------------------------

 * finished run on 2020/12/23 at 21:41:03.763
