   * xtb version 6.2.3 (830e466) compiled by 'ehlert@majestix' on 2020-03-16
          program call               : xtb -c 0 -u 0 -a 1.0 --iterations 100 --opt normal --namespace product_3 /scratch/bell/zhao922/YARP/paper-example/potential_product/test/reaction_channel/pp_0/pp_12_1.xyz
          number of atoms            :                    12
          number of electrons        :                    36
          charge                     :                     0
          spin                       :                   0.0
          :  Hamiltonian                  GFN2-xTB          :
 * total energy  :   -21.4920702 Eh     change       -0.2433627E-08 Eh
 * total energy  :   -21.5035508 Eh     change       -0.1148065E-01 Eh
 * total energy  :   -21.4804185 Eh     change        0.2313234E-01 Eh
 * total energy  :   -21.5058823 Eh     change       -0.2546380E-01 Eh
 * total energy  :   -21.5069002 Eh     change       -0.1017887E-02 Eh
 * total energy  :   -21.5071848 Eh     change       -0.2846673E-03 Eh
 * total energy  :   -21.5073151 Eh     change       -0.1302765E-03 Eh
 * total energy  :   -21.5075293 Eh     change       -0.2142072E-03 Eh
 * total energy  :   -21.5076990 Eh     change       -0.1696524E-03 Eh
 * total energy  :   -21.5078741 Eh     change       -0.1751181E-03 Eh
 * total energy  :   -21.5102491 Eh     change       -0.1108817E-04 Eh
 * total energy  :   -21.5102575 Eh     change       -0.8360287E-05 Eh
 * total energy  :   -21.5102751 Eh     change       -0.1763679E-04 Eh
 * total energy  :   -21.5102897 Eh     change       -0.1454065E-04 Eh
 * total energy  :   -21.5102978 Eh     change       -0.8148794E-05 Eh
 * total energy  :   -21.5103046 Eh     change       -0.6764975E-05 Eh
 * total energy  :   -21.5103054 Eh     change       -0.7720192E-06 Eh
 * total energy  :   -21.5103109 Eh     change       -0.5536115E-05 Eh
 * total energy  :   -21.5103154 Eh     change       -0.4484324E-05 Eh
   *** GEOMETRY OPTIMIZATION CONVERGED AFTER 58 ITERATIONS ***

 final structure:
================
12
 xtb: 6.2.3 (830e466)
C         0.74016298192143    1.87646291949443   -1.02885680013662
C        -0.09441123053594    0.94079757075707   -0.60576631343652
C         1.90849871044862   -0.66946289322056   -1.79765575507210
O         0.52419304118788    2.52543562018364   -2.20397159021104
O         1.61633322902475    3.37649607032663   -2.52290770397703
O         2.57488299790358   -0.94073982372851   -0.84352833941329
H         1.22237916334454    4.01259631509401   -3.13480961929405
H         1.62441029378341    2.18895655078073   -0.49089256189405
H         2.21050735897277    0.08439361034919   -2.54175126835876
H         0.96144767393383   -1.18323822520202   -2.02880432520589
H        -0.96690182015866    0.67185077758834   -1.17330234497401
H         0.06749760017384    0.45605150757839    0.33646662196852

          :  Hamiltonian                  GFN2-xTB          :
         :: total energy             -21.510315397935 Eh    ::
         :: gradient norm              0.000736596314 Eh/a0 ::
         :: HOMO-LUMO gap              3.436770810992 eV    ::
         :: SCC energy               -21.716997351949 Eh    ::
         :: -> dispersion             -0.005911122576 Eh    ::
         :: repulsion energy           0.206668608452 Eh    ::

    * Orbital Energies and Occupations

         #    Occupation            Energy/Eh            Energy/eV
      -------------------------------------------------------------
         1        2.0000           -0.7501257             -20.4120
       ...           ...                  ...                  ...
         6        2.0000           -0.6219578             -16.9243
         7        2.0000           -0.6047707             -16.4566
         8        2.0000           -0.5902979             -16.0628
         9        2.0000           -0.5721518             -15.5690
        10        2.0000           -0.5566871             -15.1482
        11        2.0000           -0.5434441             -14.7879
        12        2.0000           -0.5313586             -14.4590
        13        2.0000           -0.5231910             -14.2368
        14        2.0000           -0.4968315             -13.5195
        15        2.0000           -0.4790075             -13.0345
        16        2.0000           -0.4644796             -12.6391
        17        2.0000           -0.4113316             -11.1929
        18        2.0000           -0.4013683             -10.9218 (HOMO)
        19                         -0.2750693              -7.4850 (LUMO)
        20                         -0.2140854              -5.8256
        21                         -0.1725940              -4.6965
        22                          0.0968018               2.6341
        23                          0.1083493               2.9483
        24                          0.1130882               3.0773
        25                          0.1388167               3.7774
        26                          0.1947191               5.2986
        27                          0.2321601               6.3174
        28                          0.4160969              11.3226
        29                          0.5771551              15.7052
        30                          0.5854252              15.9302
      -------------------------------------------------------------
                  HL-Gap            0.1262990 Eh            3.4368 eV

     #   Z        covCN         q      C6AA      Î±(0)
     1   6 C      2.763     0.108    25.594     8.285
     2   6 C      2.835    -0.129    31.272     9.164
     3   6 C      2.701     0.181    24.114     8.037
     4   8 O      1.786    -0.157    16.662     5.512
     5   8 O      1.740    -0.312    19.188     5.915
     6   8 O      0.856    -0.291    19.624     5.939
     7   1 H      0.805     0.326     0.648     1.265
     8   1 H      0.926     0.069     2.098     2.265
     9   1 H      0.923     0.041     2.432     2.439
    10   1 H      0.923     0.038     2.481     2.463
    11   1 H      0.926     0.061     2.184     2.311
    12   1 H      0.926     0.065     2.137     2.286

Wiberg/Mayer (AO) data.
largest (>0.10) Wiberg bond orders for each atom
          total WBO             WBO to atom ...

molecular dipole:
                 x           y           z       tot (Debye)
 q only:       -0.598       0.516      -0.502
   full:       -0.760       0.720      -0.754       3.279

           -------------------------------------------------
          | TOTAL ENERGY              -21.510315397935 Eh   |
          | GRADIENT NORM               0.000736596314 Eh/Î± |
          | HOMO-LUMO GAP               3.436770810992 eV   |
           -------------------------------------------------

 * finished run on 2020/12/23 at 21:40:22.659
