   * xtb version 6.2.3 (830e466) compiled by 'ehlert@majestix' on 2020-03-16
          program call               : xtb -c 0 -u 0 -a 1.0 --iterations 100 --opt normal --namespace product_12 /scratch/bell/zhao922/YARP/paper-example/potential_product/test/reaction_channel/pp_0/pp_16_0.xyz
          number of atoms            :                    12
          number of electrons        :                    36
          charge                     :                     0
          spin                       :                   0.0
          :  Hamiltonian                  GFN2-xTB          :
 * total energy  :   -21.4965648 Eh     change        0.2013596E-08 Eh
 * total energy  :   -21.5055049 Eh     change       -0.8940060E-02 Eh
 * total energy  :   -21.5071397 Eh     change       -0.1634869E-02 Eh
 * total energy  :   -21.5073265 Eh     change       -0.1867266E-03 Eh
 * total energy  :   -21.5075027 Eh     change       -0.1762726E-03 Eh
 * total energy  :   -21.5076813 Eh     change       -0.1785527E-03 Eh
 * total energy  :   -21.5073211 Eh     change        0.3601576E-03 Eh
 * total energy  :   -21.5078691 Eh     change       -0.5479916E-03 Eh
 * total energy  :   -21.5079048 Eh     change       -0.3570357E-04 Eh
 * total energy  :   -21.5079473 Eh     change       -0.4245523E-04 Eh
 * total energy  :   -21.5102393 Eh     change       -0.9243482E-05 Eh
 * total energy  :   -21.5102466 Eh     change       -0.7394204E-05 Eh
 * total energy  :   -21.5102530 Eh     change       -0.6373956E-05 Eh
 * total energy  :   -21.5102595 Eh     change       -0.6478726E-05 Eh
 * total energy  :   -21.5102629 Eh     change       -0.3390771E-05 Eh
 * total energy  :   -21.5102672 Eh     change       -0.4304192E-05 Eh
 * total energy  :   -21.5102710 Eh     change       -0.3788458E-05 Eh
 * total energy  :   -21.5102739 Eh     change       -0.2900819E-05 Eh
 * total energy  :   -21.5102773 Eh     change       -0.3395665E-05 Eh
   *** GEOMETRY OPTIMIZATION CONVERGED AFTER 55 ITERATIONS ***

 final structure:
================
12
 xtb: 6.2.3 (830e466)
C         0.66602824779594    1.05534941143131   -2.34601083046070
C        -0.49750018704033    0.65406547695707   -1.44697061088580
C         3.24845699995595    0.13541876128182   -0.67738153371016
O         0.97257400752069    2.42538983622653   -2.29063190340948
O         1.57628674404864    2.73007180994435   -1.02842128519157
O         3.17173138371131    0.52191493228485    0.38037815729078
H         1.65386942361302    3.69111703351478   -1.07430853608919
H         1.56405499272286    0.47019461663849   -2.09382925275862
H         0.42085318569435    0.90895577665712   -3.40125163352563
H        -0.70332222382140   -0.40539426029420   -1.56776440635967
H        -1.38740050835948    1.22345620187783   -1.70428023246019
H        -0.24565206583805    0.85010040348751   -0.40774793243652

          :  Hamiltonian                  GFN2-xTB          :
         :: total energy             -21.510277275050 Eh    ::
         :: gradient norm              0.000916805897 Eh/a0 ::
         :: HOMO-LUMO gap              3.787610712491 eV    ::
         :: SCC energy               -21.700818081913 Eh    ::
         :: -> dispersion             -0.005686931265 Eh    ::
         :: repulsion energy           0.190525442218 Eh    ::

    * Orbital Energies and Occupations

         #    Occupation            Energy/Eh            Energy/eV
      -------------------------------------------------------------
         1        2.0000           -0.7819749             -21.2786
       ...           ...                  ...                  ...
         6        2.0000           -0.6095049             -16.5855
         7        2.0000           -0.6029329             -16.4066
         8        2.0000           -0.5994653             -16.3123
         9        2.0000           -0.5971082             -16.2481
        10        2.0000           -0.5677468             -15.4492
        11        2.0000           -0.5472227             -14.8907
        12        2.0000           -0.5168181             -14.0633
        13        2.0000           -0.5019573             -13.6590
        14        2.0000           -0.4813054             -13.0970
        15        2.0000           -0.4696940             -12.7810
        16        2.0000           -0.4629836             -12.5984
        17        2.0000           -0.4440579             -12.0834
        18        2.0000           -0.4076442             -11.0926 (HOMO)
        19                         -0.2684520              -7.3050 (LUMO)
        20                         -0.2667687              -7.2591
        21                         -0.1519750              -4.1354
        22                          0.0686398               1.8678
        23                          0.1144420               3.1141
        24                          0.1348492               3.6694
        25                          0.1616202               4.3979
        26                          0.1723048               4.6887
        27                          0.1891414               5.1468
        28                          0.2443139               6.6481
        29                          0.2793341               7.6011
        30                          0.8161859              22.2095
      -------------------------------------------------------------
                  HL-Gap            0.1391921 Eh            3.7876 eV

     #   Z        covCN         q      C6AA      Î±(0)
     1   6 C      3.675     0.083    19.414     6.313
     2   6 C      3.750    -0.116    22.792     6.809
     3   6 C      0.856     0.044    33.797     9.701
     4   8 O      1.774    -0.214    17.534     5.654
     5   8 O      1.731    -0.332    19.558     5.971
     6   8 O      0.856    -0.056    15.879     5.343
     7   1 H      0.805     0.319     0.667     1.283
     8   1 H      0.923     0.057     2.239     2.340
     9   1 H      0.924     0.064     2.156     2.296
    10   1 H      0.925     0.042     2.417     2.431
    11   1 H      0.925     0.052     2.293     2.368
    12   1 H      0.925     0.057     2.231     2.336

Wiberg/Mayer (AO) data.
largest (>0.10) Wiberg bond orders for each atom
          total WBO             WBO to atom ...

molecular dipole:
                 x           y           z       tot (Debye)
 q only:       -0.239      -0.151      -0.196
   full:       -0.250       0.092       0.101       0.725

           -------------------------------------------------
          | TOTAL ENERGY              -21.510277275050 Eh   |
          | GRADIENT NORM               0.000916805897 Eh/Î± |
          | HOMO-LUMO GAP               3.787610712491 eV   |
           -------------------------------------------------

 * finished run on 2020/12/23 at 21:41:20.967
