   * xtb version 6.2.3 (830e466) compiled by 'ehlert@majestix' on 2020-03-16
          program call               : xtb -c 0 -u 0 -a 1.0 --iterations 100 --opt normal --namespace product_28 /scratch/bell/zhao922/YARP/paper-example/potential_product/test/reaction_channel/pp_0/pp_3_0.xyz
          number of atoms            :                    12
          number of electrons        :                    36
          charge                     :                     0
          spin                       :                   0.0
          :  Hamiltonian                  GFN2-xTB          :
 * total energy  :   -21.5213144 Eh     change       -0.1219136E-07 Eh
 * total energy  :   -21.5328256 Eh     change       -0.1151116E-01 Eh
 * total energy  :   -21.5337282 Eh     change       -0.9026003E-03 Eh
 * total energy  :   -21.5347375 Eh     change       -0.1009329E-02 Eh
 * total energy  :   -21.5348417 Eh     change       -0.1042288E-03 Eh
 * total energy  :   -21.5351994 Eh     change       -0.3576348E-03 Eh
 * total energy  :   -21.5353830 Eh     change       -0.1836095E-03 Eh
 * total energy  :   -21.5355982 Eh     change       -0.2152507E-03 Eh
 * total energy  :   -21.5358301 Eh     change       -0.2318404E-03 Eh
 * total energy  :   -21.5360939 Eh     change       -0.2638138E-03 Eh
 * total energy  :   -21.5397718 Eh     change       -0.1870840E-04 Eh
 * total energy  :   -21.5397870 Eh     change       -0.1521313E-04 Eh
 * total energy  :   -21.5397927 Eh     change       -0.5663696E-05 Eh
 * total energy  :   -21.5397981 Eh     change       -0.5376732E-05 Eh
 * total energy  :   -21.5398061 Eh     change       -0.8027966E-05 Eh
 * total energy  :   -21.5398080 Eh     change       -0.1856945E-05 Eh
 * total energy  :   -21.5398146 Eh     change       -0.6666323E-05 Eh
 * total energy  :   -21.5398181 Eh     change       -0.3441012E-05 Eh
 * total energy  :   -21.5398226 Eh     change       -0.4486272E-05 Eh
   *** GEOMETRY OPTIMIZATION CONVERGED AFTER 60 ITERATIONS ***

 final structure:
================
12
 xtb: 6.2.3 (830e466)
C         1.69685392805440    1.29540622206362   -3.18161919225653
C         0.18859063659124    0.36500356843413    0.44617503850609
C         1.17088493201234   -0.42729330432942    0.19837646850537
O         0.51192347045855    2.00330795954141   -2.91468654307493
O         0.65217839680631    2.78804338210329   -1.74111028900989
O         2.07242646249934   -1.12323576380109   -0.04856127044807
H         0.61181847682607    3.70185669950805   -2.05715978477042
H         1.95821577726201    0.62598462427673   -2.35888034898505
H         2.53232795023866    1.97264383531596   -3.38766220797632
H         1.45835649505190    0.71572207120334   -4.07141961839423
H        -0.56006231696540    0.13393002034553    1.17632301952010
H         0.09549579116448    1.28824068533863   -0.09557527161590

          :  Hamiltonian                  GFN2-xTB          :
         :: total energy             -21.539822553153 Eh    ::
         :: gradient norm              0.000500568691 Eh/a0 ::
         :: HOMO-LUMO gap              3.683053045289 eV    ::
         :: SCC energy               -21.768822608940 Eh    ::
         :: -> dispersion             -0.005038895710 Eh    ::
         :: repulsion energy           0.228982502962 Eh    ::

    * Orbital Energies and Occupations

         #    Occupation            Energy/Eh            Energy/eV
      -------------------------------------------------------------
         1        2.0000           -0.7358697             -20.0240
       ...           ...                  ...                  ...
         6        2.0000           -0.6181549             -16.8208
         7        2.0000           -0.5883079             -16.0087
         8        2.0000           -0.5704931             -15.5239
         9        2.0000           -0.5648302             -15.3698
        10        2.0000           -0.5607820             -15.2597
        11        2.0000           -0.5586873             -15.2027
        12        2.0000           -0.5269959             -14.3403
        13        2.0000           -0.4988603             -13.5747
        14        2.0000           -0.4888977             -13.3036
        15        2.0000           -0.4726709             -12.8620
        16        2.0000           -0.4697604             -12.7828
        17        2.0000           -0.4289240             -11.6716
        18        2.0000           -0.3784895             -10.2992 (HOMO)
        19                         -0.2431398              -6.6162 (LUMO)
        20                         -0.1534107              -4.1745
        21                         -0.1517707              -4.1299
        22                          0.0743641               2.0235
        23                          0.1075986               2.9279
        24                          0.1393744               3.7926
        25                          0.1622166               4.4141
        26                          0.1969481               5.3592
        27                          0.2102681               5.7217
        28                          0.3483692               9.4796
        29                          0.3699848              10.0678
        30                          1.1848341              32.2410
      -------------------------------------------------------------
                  HL-Gap            0.1353497 Eh            3.6831 eV

     #   Z        covCN         q      C6AA      Î±(0)
     1   6 C      3.626     0.034    20.418     6.510
     2   6 C      2.834    -0.207    33.481     9.482
     3   6 C      1.836     0.249    25.394     8.141
     4   8 O      1.783    -0.204    17.378     5.629
     5   8 O      1.739    -0.325    19.419     5.950
     6   8 O      0.856    -0.261    19.100     5.859
     7   1 H      0.805     0.315     0.676     1.292
     8   1 H      0.924     0.059     2.211     2.325
     9   1 H      0.924     0.047     2.359     2.402
    10   1 H      0.925     0.076     2.026     2.226
    11   1 H      0.926     0.091     1.866     2.136
    12   1 H      0.926     0.125     1.571     1.960

Wiberg/Mayer (AO) data.
largest (>0.10) Wiberg bond orders for each atom
          total WBO             WBO to atom ...

molecular dipole:
                 x           y           z       tot (Debye)
 q only:       -0.092       0.695      -0.264
   full:       -0.069       0.897      -0.331       2.437

           -------------------------------------------------
          | TOTAL ENERGY              -21.539822553153 Eh   |
          | GRADIENT NORM               0.000500568691 Eh/Î± |
          | HOMO-LUMO GAP               3.683053045289 eV   |
           -------------------------------------------------

 * finished run on 2020/12/23 at 21:42:58.365
