   * xtb version 6.2.3 (830e466) compiled by 'ehlert@majestix' on 2020-03-16
          program call               : xtb -c 0 -u 0 -a 1.0 --iterations 100 --opt normal --namespace product_4 /scratch/bell/zhao922/YARP/paper-example/potential_product/test/reaction_channel/pp_0/pp_13_0.xyz
          number of atoms            :                    12
          number of electrons        :                    36
          charge                     :                     0
          spin                       :                   0.0
          :  Hamiltonian                  GFN2-xTB          :
 * total energy  :   -21.4889498 Eh     change       -0.1184979E-07 Eh
 * total energy  :   -21.5052962 Eh     change       -0.1634633E-01 Eh
 * total energy  :   -21.5090575 Eh     change       -0.3761293E-02 Eh
 * total energy  :   -21.5094591 Eh     change       -0.4016530E-03 Eh
 * total energy  :   -21.5097550 Eh     change       -0.2958913E-03 Eh
 * total energy  :   -21.5099870 Eh     change       -0.2319474E-03 Eh
 * total energy  :   -21.5102302 Eh     change       -0.2432323E-03 Eh
 * total energy  :   -21.5103349 Eh     change       -0.1047402E-03 Eh
 * total energy  :   -21.5104538 Eh     change       -0.1188179E-03 Eh
 * total energy  :   -21.5105067 Eh     change       -0.5299582E-04 Eh
 * total energy  :   -21.5117108 Eh     change       -0.8983651E-05 Eh
 * total energy  :   -21.5117254 Eh     change       -0.1458232E-04 Eh
 * total energy  :   -21.5117385 Eh     change       -0.1313987E-04 Eh
 * total energy  :   -21.5117554 Eh     change       -0.1687155E-04 Eh
 * total energy  :   -21.5117689 Eh     change       -0.1347409E-04 Eh
 * total energy  :   -21.5117798 Eh     change       -0.1091902E-04 Eh
 * total energy  :   -21.5117959 Eh     change       -0.1615116E-04 Eh
 * total energy  :   -21.5118013 Eh     change       -0.5405655E-05 Eh
 * total energy  :   -21.5118054 Eh     change       -0.4106555E-05 Eh
   *** GEOMETRY OPTIMIZATION CONVERGED AFTER 44 ITERATIONS ***

 final structure:
================
12
 xtb: 6.2.3 (830e466)
C         0.55912785290719    1.62049380590358   -1.78810748402515
C         0.98768417543296    1.20024478952431   -0.59452193534774
C         1.05498151897084   -0.21113534345327   -0.26666607426366
O         0.44086675423665    2.87146981552847   -2.23603665118496
O         0.82591581264800    3.85513292856883   -1.28585921135159
O         1.44064561517860   -0.66377421631978    0.78198925036588
H         0.69613629805444    4.67918176352812   -1.77649416176810
H         2.10435689859335   -0.81343512453476   -3.34182799657510
H         0.23913982850197    0.95274173618848   -2.57991661787019
H         0.71126971097917   -0.87854158095764   -1.08418893666028
H         2.03186491811246   -1.18028018178549   -4.02408937760876
H         1.29700061638228    1.90751160780926    0.15990919629046

          :  Hamiltonian                  GFN2-xTB          :
         :: total energy             -21.511805440727 Eh    ::
         :: gradient norm              0.000309269779 Eh/a0 ::
         :: HOMO-LUMO gap              3.056782889200 eV    ::
         :: SCC energy               -21.731703274080 Eh    ::
         :: -> dispersion             -0.005534866112 Eh    ::
         :: repulsion energy           0.219890944990 Eh    ::

    * Orbital Energies and Occupations

         #    Occupation            Energy/Eh            Energy/eV
      -------------------------------------------------------------
         1        2.0000           -0.7734807             -21.0475
       ...           ...                  ...                  ...
         6        2.0000           -0.6435691             -17.5124
         7        2.0000           -0.6102299             -16.6052
         8        2.0000           -0.5970135             -16.2456
         9        2.0000           -0.5811796             -15.8147
        10        2.0000           -0.5554765             -15.1153
        11        2.0000           -0.5392989             -14.6751
        12        2.0000           -0.5315666             -14.4647
        13        2.0000           -0.5095793             -13.8664
        14        2.0000           -0.4955236             -13.4839
        15        2.0000           -0.4829701             -13.1423
        16        2.0000           -0.4736147             -12.8877
        17        2.0000           -0.4214080             -11.4671
        18        2.0000           -0.4002850             -10.8923 (HOMO)
        19                         -0.2879503              -7.8355 (LUMO)
        20                         -0.1884220              -5.1272
        21                         -0.1760475              -4.7905
        22                          0.0779983               2.1224
        23                          0.0855431               2.3277
        24                          0.1050488               2.8585
        25                          0.1277596               3.4765
        26                          0.1626017               4.4246
        27                          0.2623901               7.1400
        28                          0.3732130              10.1556
        29                          0.5164516              14.0534
        30                          0.6799783              18.5032
      -------------------------------------------------------------
                  HL-Gap            0.1123347 Eh            3.0568 eV

     #   Z        covCN         q      C6AA      Î±(0)
     1   6 C      2.774     0.121    25.326     8.242
     2   6 C      2.887    -0.090    30.269     9.020
     3   6 C      2.767     0.208    23.584     7.953
     4   8 O      1.786    -0.124    16.166     5.429
     5   8 O      1.739    -0.299    18.967     5.880
     6   8 O      0.857    -0.335    20.430     6.060
     7   1 H      0.805     0.334     0.626     1.243
     8   1 H      0.810    -0.003     3.168     2.795
     9   1 H      0.925     0.084     1.942     2.180
    10   1 H      0.922     0.007     2.939     2.681
    11   1 H      0.810     0.003     3.054     2.744
    12   1 H      0.926     0.095     1.832     2.117

Wiberg/Mayer (AO) data.
largest (>0.10) Wiberg bond orders for each atom
          total WBO             WBO to atom ...

molecular dipole:
                 x           y           z       tot (Debye)
 q only:       -0.390       1.086      -1.175
   full:       -0.510       1.272      -1.510       5.182

           -------------------------------------------------
          | TOTAL ENERGY              -21.511805440727 Eh   |
          | GRADIENT NORM               0.000309269779 Eh/Î± |
          | HOMO-LUMO GAP               3.056782889200 eV   |
           -------------------------------------------------

 * finished run on 2020/12/23 at 21:40:29.959
