   * xtb version 6.2.3 (830e466) compiled by 'ehlert@majestix' on 2020-03-16
          program call               : xtb -c 0 -u 0 -a 1.0 --iterations 100 --opt normal --namespace product_22 /scratch/bell/zhao922/YARP/paper-example/potential_product/test/reaction_channel/pp_0/pp_22_0.xyz
          number of atoms            :                    12
          number of electrons        :                    36
          charge                     :                     0
          spin                       :                   0.0
          :  Hamiltonian                  GFN2-xTB          :
 * total energy  :   -21.5828971 Eh     change        0.1445958E-07 Eh
 * total energy  :   -21.5932510 Eh     change       -0.1035391E-01 Eh
 * total energy  :   -21.5955491 Eh     change       -0.2298121E-02 Eh
 * total energy  :   -21.5958454 Eh     change       -0.2963029E-03 Eh
 * total energy  :   -21.5959800 Eh     change       -0.1345913E-03 Eh
 * total energy  :   -21.5960467 Eh     change       -0.6670240E-04 Eh
 * total energy  :   -21.5961086 Eh     change       -0.6191847E-04 Eh
 * total energy  :   -21.5961628 Eh     change       -0.5420806E-04 Eh
 * total energy  :   -21.5962133 Eh     change       -0.5045318E-04 Eh
 * total energy  :   -21.5962659 Eh     change       -0.5261936E-04 Eh
 * total energy  :   -21.6037763 Eh     change       -0.2086353E-03 Eh
 * total energy  :   -21.6038053 Eh     change       -0.2901586E-04 Eh
 * total energy  :   -21.6041130 Eh     change       -0.3076160E-03 Eh
 * total energy  :   -21.6041944 Eh     change       -0.8148666E-04 Eh
 * total energy  :   -21.6042978 Eh     change       -0.1033264E-03 Eh
 * total energy  :   -21.6043437 Eh     change       -0.4595384E-04 Eh
 * total energy  :   -21.6043673 Eh     change       -0.2360721E-04 Eh
 * total energy  :   -21.6043763 Eh     change       -0.8923822E-05 Eh
 * total energy  :   -21.6043774 Eh     change       -0.1185040E-05 Eh
   *** GEOMETRY OPTIMIZATION CONVERGED AFTER 38 ITERATIONS ***

 final structure:
================
12
 xtb: 6.2.3 (830e466)
C         1.19475140555837    1.14083084396030   -2.82771982040560
C         0.13302321422880    0.97994087185821   -1.74140827092032
C         1.06143510450635    0.93786094576906   -0.52558126189424
O         2.28036065920523    0.35536234176004   -2.39390193750243
O         1.30603207658199    2.24732648982473   -0.10673321881967
O         2.22152587178406    0.29214745031673   -0.95799139072987
H         2.09100745174742    2.25703983849444    0.45185250453190
H         1.49116857518961    2.19464655338387   -2.91743432549919
H         0.89762443527381    0.74678875025670   -3.79959538048021
H         0.67077445095500    0.33262062634879    0.30801103062622
H        -0.40364262826762    0.03857674297784   -1.84238995334279
H        -0.55506061676303    1.81647854504930   -1.68289797556382

          :  Hamiltonian                  GFN2-xTB          :
         :: total energy             -21.604377437714 Eh    ::
         :: gradient norm              0.001003724435 Eh/a0 ::
         :: HOMO-LUMO gap              6.594125467754 eV    ::
         :: SCC energy               -21.754223412499 Eh    ::
         :: -> dispersion             -0.006232070723 Eh    ::
         :: repulsion energy           0.149841586692 Eh    ::

    * Orbital Energies and Occupations

         #    Occupation            Energy/Eh            Energy/eV
      -------------------------------------------------------------
         1        2.0000           -0.7402157             -20.1423
       ...           ...                  ...                  ...
         6        2.0000           -0.6320137             -17.1980
         7        2.0000           -0.6080617             -16.5462
         8        2.0000           -0.5949964             -16.1907
         9        2.0000           -0.5668435             -15.4246
        10        2.0000           -0.5566179             -15.1463
        11        2.0000           -0.5499615             -14.9652
        12        2.0000           -0.5296637             -14.4129
        13        2.0000           -0.5102566             -13.8848
        14        2.0000           -0.4902699             -13.3409
        15        2.0000           -0.4853768             -13.2078
        16        2.0000           -0.4707352             -12.8094
        17        2.0000           -0.4451953             -12.1144
        18        2.0000           -0.4103891             -11.1673 (HOMO)
        19                         -0.1680594              -4.5731 (LUMO)
        20                          0.0159522               0.4341
        21                          0.0483141               1.3147
        22                          0.0667714               1.8169
        23                          0.0924335               2.5152
        24                          0.1252302               3.4077
        25                          0.1282486               3.4898
        26                          0.1443797               3.9288
        27                          0.1734383               4.7195
        28                          0.2167807               5.8989
        29                          0.2275182               6.1911
        30                          0.2870416               7.8108
      -------------------------------------------------------------
                  HL-Gap            0.2423297 Eh            6.5941 eV

     #   Z        covCN         q      C6AA      Î±(0)
     1   6 C      3.723     0.083    19.296     6.273
     2   6 C      3.804    -0.072    21.865     6.657
     3   6 C      3.650     0.260    16.887     5.903
     4   8 O      1.774    -0.194    17.229     5.605
     5   8 O      1.657    -0.445    21.741     6.294
     6   8 O      1.775    -0.229    17.787     5.695
     7   1 H      0.805     0.312     0.686     1.301
     8   1 H      0.923     0.053     2.280     2.361
     9   1 H      0.925     0.067     2.118     2.276
    10   1 H      0.923     0.033     2.545     2.495
    11   1 H      0.925     0.059     2.207     2.323
    12   1 H      0.925     0.072     2.064     2.247

Wiberg/Mayer (AO) data.
largest (>0.10) Wiberg bond orders for each atom
          total WBO             WBO to atom ...

molecular dipole:
                 x           y           z       tot (Debye)
 q only:       -0.788       0.280      -0.010
   full:       -0.798       0.252       0.120       2.150

           -------------------------------------------------
          | TOTAL ENERGY              -21.604377437714 Eh   |
          | GRADIENT NORM               0.001003724435 Eh/Î± |
          | HOMO-LUMO GAP               6.594125467754 eV   |
           -------------------------------------------------

 * finished run on 2020/12/23 at 21:42:26.259
