   * xtb version 6.2.3 (830e466) compiled by 'ehlert@majestix' on 2020-03-16
          program call               : xtb -c 0 -u 0 -a 1.0 --iterations 100 --opt normal --namespace product_30 /scratch/bell/zhao922/YARP/paper-example/potential_product/test/reaction_channel/pp_0/pp_5_0.xyz
          number of atoms            :                    12
          number of electrons        :                    36
          charge                     :                     0
          spin                       :                   0.0
          :  Hamiltonian                  GFN2-xTB          :
 * total energy  :   -21.6217164 Eh     change        0.1240971E-07 Eh
 * total energy  :   -21.6265470 Eh     change       -0.4830679E-02 Eh
 * total energy  :   -21.6274797 Eh     change       -0.9326694E-03 Eh
 * total energy  :   -21.6279577 Eh     change       -0.4780442E-03 Eh
 * total energy  :   -21.6282381 Eh     change       -0.2803502E-03 Eh
 * total energy  :   -21.6285533 Eh     change       -0.3151767E-03 Eh
 * total energy  :   -21.6289179 Eh     change       -0.3646699E-03 Eh
 * total energy  :   -21.6293362 Eh     change       -0.4182228E-03 Eh
 * total energy  :   -21.6298427 Eh     change       -0.5064958E-03 Eh
 * total energy  :   -21.6303913 Eh     change       -0.5486703E-03 Eh
 * total energy  :   -21.6386142 Eh     change       -0.2374313E-03 Eh
 * total energy  :   -21.6387544 Eh     change       -0.1401770E-03 Eh
 * total energy  :   -21.6388482 Eh     change       -0.9379422E-04 Eh
 * total energy  :   -21.6388921 Eh     change       -0.4395900E-04 Eh
 * total energy  :   -21.6389216 Eh     change       -0.2951891E-04 Eh
 * total energy  :   -21.6389324 Eh     change       -0.1080725E-04 Eh
 * total energy  :   -21.6389383 Eh     change       -0.5833192E-05 Eh
 * total energy  :   -21.6389439 Eh     change       -0.5649588E-05 Eh
 * total energy  :   -21.6389455 Eh     change       -0.1547678E-05 Eh
   *** GEOMETRY OPTIMIZATION CONVERGED AFTER 52 ITERATIONS ***

 final structure:
================
12
 xtb: 6.2.3 (830e466)
C         1.67482989349526    2.08340472320651   -2.22762450402434
C         0.21397754738169    0.53509178989751   -1.20729165373167
C         1.12520158525524   -0.61495599240762   -0.84979410960166
O         0.57537224658797    1.22595801378605   -2.38092352079313
O         1.37954230427406    3.18685445090540   -1.42882072001507
O         2.12548334318345   -0.93028128837439   -1.42358215647077
H         0.67518200941197    3.69902292815647   -1.84527885731560
H         2.52139824172923    1.58040914139137   -1.74759812343820
H         1.94852362498548    2.37690793085187   -3.24936807793818
H         0.76589235890450   -1.16403498775049    0.04549781160858
H        -0.79349235608875    0.14223311072662   -1.37629011447242
H         0.17708920087999    1.21899017961079   -0.34472597380735

          :  Hamiltonian                  GFN2-xTB          :
         :: total energy             -21.638945464986 Eh    ::
         :: gradient norm              0.000287655071 Eh/a0 ::
         :: HOMO-LUMO gap              3.551293994400 eV    ::
         :: SCC energy               -21.812102887504 Eh    ::
         :: -> dispersion             -0.005990896033 Eh    ::
         :: repulsion energy           0.173152007964 Eh    ::

    * Orbital Energies and Occupations

         #    Occupation            Energy/Eh            Energy/eV
      -------------------------------------------------------------
         1        2.0000           -0.7356089             -20.0169
       ...           ...                  ...                  ...
         6        2.0000           -0.6250258             -17.0078
         7        2.0000           -0.5947068             -16.1828
         8        2.0000           -0.5898184             -16.0498
         9        2.0000           -0.5834663             -15.8769
        10        2.0000           -0.5570356             -15.1577
        11        2.0000           -0.5545646             -15.0905
        12        2.0000           -0.5439735             -14.8023
        13        2.0000           -0.5251740             -14.2907
        14        2.0000           -0.4996882             -13.5972
        15        2.0000           -0.4655672             -12.6687
        16        2.0000           -0.4547743             -12.3750
        17        2.0000           -0.4456043             -12.1255
        18        2.0000           -0.4073848             -11.0855 (HOMO)
        19                         -0.2768772              -7.5342 (LUMO)
        20                          0.0155085               0.4220
        21                          0.0637797               1.7355
        22                          0.0770030               2.0954
        23                          0.1110329               3.0214
        24                          0.1232941               3.3550
        25                          0.1436213               3.9081
        26                          0.1567665               4.2658
        27                          0.1911572               5.2017
        28                          0.2041676               5.5557
        29                          0.2659859               7.2378
        30                          0.6157344              16.7550
      -------------------------------------------------------------
                  HL-Gap            0.1305077 Eh            3.5513 eV

     #   Z        covCN         q      C6AA      Î±(0)
     1   6 C      3.577     0.213    17.896     6.146
     2   6 C      3.701     0.054    19.819     6.366
     3   6 C      2.754     0.205    23.652     7.964
     4   8 O      1.701    -0.312    19.211     5.918
     5   8 O      1.656    -0.444    21.712     6.290
     6   8 O      0.856    -0.296    19.711     5.952
     7   1 H      0.805     0.304     0.709     1.323
     8   1 H      0.924     0.054     2.270     2.356
     9   1 H      0.924     0.042     2.420     2.433
    10   1 H      0.922     0.025     2.655     2.548
    11   1 H      0.924     0.083     1.952     2.185
    12   1 H      0.923     0.072     2.066     2.248

Wiberg/Mayer (AO) data.
largest (>0.10) Wiberg bond orders for each atom
          total WBO             WBO to atom ...

molecular dipole:
                 x           y           z       tot (Debye)
 q only:       -0.815       0.390       0.293
   full:       -1.044       0.443       0.367       3.030

           -------------------------------------------------
          | TOTAL ENERGY              -21.638945464986 Eh   |
          | GRADIENT NORM               0.000287655071 Eh/Î± |
          | HOMO-LUMO GAP               3.551293994400 eV   |
           -------------------------------------------------

 * finished run on 2020/12/23 at 21:43:12.669
