   * xtb version 6.2.3 (830e466) compiled by 'ehlert@majestix' on 2020-03-16
          program call               : xtb -c 0 -u 0 -a 1.0 --iterations 100 --opt normal --namespace product_8 /scratch/bell/zhao922/YARP/paper-example/potential_product/test/reaction_channel/pp_0/pp_14_0.xyz
          number of atoms            :                    12
          number of electrons        :                    36
          charge                     :                     0
          spin                       :                   0.0
          :  Hamiltonian                  GFN2-xTB          :
 * total energy  :   -21.6019159 Eh     change       -0.5709740E-08 Eh
 * total energy  :   -21.6072886 Eh     change       -0.5372701E-02 Eh
 * total energy  :   -21.6082542 Eh     change       -0.9655692E-03 Eh
 * total energy  :   -21.6092075 Eh     change       -0.9533050E-03 Eh
 * total energy  :   -21.6094905 Eh     change       -0.2829844E-03 Eh
 * total energy  :   -21.6102517 Eh     change       -0.7612811E-03 Eh
 * total energy  :   -21.6111552 Eh     change       -0.9034164E-03 Eh
 * total energy  :   -21.6119615 Eh     change       -0.8063750E-03 Eh
 * total energy  :   -21.6123940 Eh     change       -0.4324947E-03 Eh
 * total energy  :   -21.6119258 Eh     change        0.4682722E-03 Eh
 * total energy  :   -21.6149214 Eh     change       -0.1743586E-04 Eh
 * total energy  :   -21.6149323 Eh     change       -0.1087594E-04 Eh
 * total energy  :   -21.6149408 Eh     change       -0.8487650E-05 Eh
 * total energy  :   -21.6149548 Eh     change       -0.1397431E-04 Eh
 * total energy  :   -21.6149760 Eh     change       -0.2126833E-04 Eh
 * total energy  :   -21.6149818 Eh     change       -0.5798523E-05 Eh
 * total energy  :   -21.6149803 Eh     change        0.1529223E-05 Eh
 * total energy  :   -21.6149876 Eh     change       -0.7325750E-05 Eh
 * total energy  :   -21.6149918 Eh     change       -0.4138205E-05 Eh
   *** GEOMETRY OPTIMIZATION CONVERGED AFTER 44 ITERATIONS ***

 final structure:
================
12
 xtb: 6.2.3 (830e466)
C         0.38463250623133    0.78221851016296   -2.94829845350682
C         0.34322787582307    0.62058751206259   -1.45484913174133
C         1.29192177937745   -0.43708279809590   -0.97138001918998
O        -0.56642417101883    1.01696952547110   -3.63660221835589
O         1.80268126745508    3.20515937250576   -0.55117144756201
O         2.36691070823263   -0.67093220061194   -1.44655364356095
H         1.66772618610804    4.07864238976046   -0.92542846253146
H         2.75033640240998    3.06315999354102   -0.49121654161576
H         1.39879662914508    0.66033460014597   -3.36932642289684
H         0.91379589369805   -1.00971071522755   -0.10302872629336
H        -0.67433756733910    0.45887555064331   -1.10076294394955
H         0.70973248987166    1.57137825964328   -1.03718198879098

          :  Hamiltonian                  GFN2-xTB          :
         :: total energy             -21.614991743686 Eh    ::
         :: gradient norm              0.000935273496 Eh/a0 ::
         :: HOMO-LUMO gap              3.562941894332 eV    ::
         :: SCC energy               -21.823551310974 Eh    ::
         :: -> dispersion             -0.005397204279 Eh    ::
         :: repulsion energy           0.208541206186 Eh    ::

    * Orbital Energies and Occupations

         #    Occupation            Energy/Eh            Energy/eV
      -------------------------------------------------------------
         1        2.0000           -0.7313943             -19.9023
       ...           ...                  ...                  ...
         6        2.0000           -0.5993748             -16.3098
         7        2.0000           -0.5932380             -16.1428
         8        2.0000           -0.5813511             -15.8194
         9        2.0000           -0.5687903             -15.4776
        10        2.0000           -0.5547681             -15.0960
        11        2.0000           -0.5446801             -14.8215
        12        2.0000           -0.5410446             -14.7226
        13        2.0000           -0.5231787             -14.2364
        14        2.0000           -0.5086228             -13.8403
        15        2.0000           -0.4862594             -13.2318
        16        2.0000           -0.4681320             -12.7385
        17        2.0000           -0.4258206             -11.5872
        18        2.0000           -0.4046945             -11.0123 (HOMO)
        19                         -0.2737587              -7.4494 (LUMO)
        20                         -0.2660276              -7.2390
        21                          0.0462718               1.2591
        22                          0.0792914               2.1576
        23                          0.1009282               2.7464
        24                          0.1401916               3.8148
        25                          0.2027809               5.5179
        26                          0.2213317               6.0227
        27                          0.2276610               6.1950
        28                          0.2553467               6.9483
        29                          0.6065556              16.5052
        30                          0.6177015              16.8085
      -------------------------------------------------------------
                  HL-Gap            0.1309357 Eh            3.5629 eV

     #   Z        covCN         q      C6AA      Î±(0)
     1   6 C      2.759     0.222    23.326     7.909
     2   6 C      3.802    -0.126    22.905     6.814
     3   6 C      2.759     0.217    23.413     7.924
     4   8 O      0.856    -0.317    20.091     6.010
     5   8 O      1.611    -0.569    24.456     6.675
     6   8 O      0.856    -0.321    20.171     6.022
     7   1 H      0.805     0.292     0.746     1.357
     8   1 H      0.805     0.293     0.743     1.354
     9   1 H      0.922     0.043     2.411     2.428
    10   1 H      0.922     0.030     2.588     2.516
    11   1 H      0.925     0.081     1.966     2.193
    12   1 H      0.923     0.155     1.358     1.822

Wiberg/Mayer (AO) data.
largest (>0.10) Wiberg bond orders for each atom
          total WBO             WBO to atom ...

molecular dipole:
                 x           y           z       tot (Debye)
 q only:        0.285       0.825       0.826
   full:        0.466       0.983       0.966       3.698

           -------------------------------------------------
          | TOTAL ENERGY              -21.614991743686 Eh   |
          | GRADIENT NORM               0.000935273496 Eh/Î± |
          | HOMO-LUMO GAP               3.562941894332 eV   |
           -------------------------------------------------

 * finished run on 2020/12/23 at 21:40:57.160
