   * xtb version 6.2.3 (830e466) compiled by 'ehlert@majestix' on 2020-03-16
          program call               : xtb -c 0 -u 0 -a 1.0 --iterations 100 --opt normal --namespace product_17 /scratch/bell/zhao922/YARP/paper-example/potential_product/test/reaction_channel/pp_0/pp_1_0.xyz
          number of atoms            :                    12
          number of electrons        :                    36
          charge                     :                     0
          spin                       :                   0.0
          :  Hamiltonian                  GFN2-xTB          :
 * total energy  :   -21.5427119 Eh     change       -0.1429101E-07 Eh
 * total energy  :   -21.5563282 Eh     change       -0.1361636E-01 Eh
 * total energy  :   -21.5595175 Eh     change       -0.3189307E-02 Eh
 * total energy  :   -21.5598817 Eh     change       -0.3641942E-03 Eh
 * total energy  :   -21.5601183 Eh     change       -0.2365294E-03 Eh
 * total energy  :   -21.5602407 Eh     change       -0.1224409E-03 Eh
 * total energy  :   -21.5603395 Eh     change       -0.9879494E-04 Eh
 * total energy  :   -21.5604058 Eh     change       -0.6627776E-04 Eh
 * total energy  :   -21.5604447 Eh     change       -0.3898057E-04 Eh
 * total energy  :   -21.5604718 Eh     change       -0.2703693E-04 Eh
 * total energy  :   -21.5618547 Eh     change       -0.1980620E-04 Eh
 * total energy  :   -21.5618427 Eh     change        0.1200931E-04 Eh
 * total energy  :   -21.5618877 Eh     change       -0.4500266E-04 Eh
 * total energy  :   -21.5619063 Eh     change       -0.1855327E-04 Eh
 * total energy  :   -21.5619106 Eh     change       -0.4308910E-05 Eh
 * total energy  :   -21.5619285 Eh     change       -0.1792926E-04 Eh
 * total energy  :   -21.5619385 Eh     change       -0.9954469E-05 Eh
 * total energy  :   -21.5619483 Eh     change       -0.9770085E-05 Eh
 * total energy  :   -21.5619529 Eh     change       -0.4637897E-05 Eh
   *** GEOMETRY OPTIMIZATION CONVERGED AFTER 68 ITERATIONS ***

 final structure:
================
12
 xtb: 6.2.3 (830e466)
C         1.76134544872405    1.41406330149226   -2.42400070615571
C        -0.29330782319021    0.00325757482921   -1.04469731892731
C         0.99444117802088   -0.09602241262219   -0.76766028342399
O         0.99255648797300    2.53781489626055   -2.12506670880886
O         1.76516398546197    3.53114128938233   -1.47997161219029
O         2.03436077668775    0.58890358550666   -1.33121579697866
H         1.53184009165335    3.45756437368059   -0.54145844062577
H         2.73889680324616    1.70483937979349   -2.82555998076644
H         1.16861685249965    0.88853742884092   -3.18605460127756
H         1.38296822911198   -0.76821508953736   -0.01522933694008
H        -1.00128051873394   -0.61104092512894   -0.52120818311346
H        -0.68662151145468    0.68874659750239   -1.77366703079190

          :  Hamiltonian                  GFN2-xTB          :
         :: total energy             -21.561952888743 Eh    ::
         :: gradient norm              0.000845329142 Eh/a0 ::
         :: HOMO-LUMO gap              5.325208952691 eV    ::
         :: SCC energy               -21.744502170385 Eh    ::
         :: -> dispersion             -0.006094031656 Eh    ::
         :: repulsion energy           0.182540281678 Eh    ::

    * Orbital Energies and Occupations

         #    Occupation            Energy/Eh            Energy/eV
      -------------------------------------------------------------
         1        2.0000           -0.7426544             -20.2087
       ...           ...                  ...                  ...
         6        2.0000           -0.6218279             -16.9208
         7        2.0000           -0.6160351             -16.7632
         8        2.0000           -0.5987269             -16.2922
         9        2.0000           -0.5716029             -15.5541
        10        2.0000           -0.5670132             -15.4292
        11        2.0000           -0.5337476             -14.5240
        12        2.0000           -0.5210824             -14.1794
        13        2.0000           -0.4964460             -13.5090
        14        2.0000           -0.4750330             -12.9263
        15        2.0000           -0.4680275             -12.7357
        16        2.0000           -0.4619438             -12.5701
        17        2.0000           -0.4430006             -12.0547
        18        2.0000           -0.3995986             -10.8736 (HOMO)
        19                         -0.2039008              -5.5484 (LUMO)
        20                         -0.1526142              -4.1528
        21                          0.0388425               1.0570
        22                          0.0877632               2.3882
        23                          0.1075109               2.9255
        24                          0.1196053               3.2546
        25                          0.1280926               3.4856
        26                          0.1453125               3.9542
        27                          0.1945214               5.2932
        28                          0.2589616               7.0467
        29                          0.4082313              11.1085
        30                          0.6232208              16.9587
      -------------------------------------------------------------
                  HL-Gap            0.1956978 Eh            5.3252 eV

     #   Z        covCN         q      C6AA      Î±(0)
     1   6 C      3.577     0.216    17.859     6.140
     2   6 C      2.833    -0.133    31.394     9.182
     3   6 C      2.784     0.099    25.793     8.319
     4   8 O      1.786    -0.209    17.453     5.641
     5   8 O      1.742    -0.304    19.055     5.894
     6   8 O      1.704    -0.278    18.606     5.824
     7   1 H      0.804     0.323     0.657     1.273
     8   1 H      0.924     0.068     2.106     2.269
     9   1 H      0.923     0.059     2.207     2.323
    10   1 H      0.926     0.055     2.263     2.352
    11   1 H      0.926     0.047     2.351     2.398
    12   1 H      0.926     0.057     2.240     2.340

Wiberg/Mayer (AO) data.
largest (>0.10) Wiberg bond orders for each atom
          total WBO             WBO to atom ...

molecular dipole:
                 x           y           z       tot (Debye)
 q only:       -0.098      -0.414       0.228
   full:       -0.149      -0.512       0.322       1.583

           -------------------------------------------------
          | TOTAL ENERGY              -21.561952888743 Eh   |
          | GRADIENT NORM               0.000845329142 Eh/Î± |
          | HOMO-LUMO GAP               5.325208952691 eV   |
           -------------------------------------------------

 * finished run on 2020/12/23 at 21:41:52.758
