   * xtb version 6.2.3 (830e466) compiled by 'ehlert@majestix' on 2020-03-16
          program call               : xtb -c 0 -u 0 -a 1.0 --iterations 100 --opt normal --namespace product_29 /scratch/bell/zhao922/YARP/paper-example/potential_product/test/reaction_channel/pp_0/pp_4_0.xyz
          number of atoms            :                    12
          number of electrons        :                    36
          charge                     :                     0
          spin                       :                   0.0
          :  Hamiltonian                  GFN2-xTB          :
 * total energy  :   -21.5779119 Eh     change       -0.3532019E-08 Eh
 * total energy  :   -21.5824010 Eh     change       -0.4489194E-02 Eh
 * total energy  :   -21.5672798 Eh     change        0.1512128E-01 Eh
 * total energy  :   -21.5837525 Eh     change       -0.1647273E-01 Eh
 * total energy  :   -21.5840393 Eh     change       -0.2868388E-03 Eh
 * total energy  :   -21.5845220 Eh     change       -0.4826829E-03 Eh
 * total energy  :   -21.5848085 Eh     change       -0.2864581E-03 Eh
 * total energy  :   -21.5852496 Eh     change       -0.4410858E-03 Eh
 * total energy  :   -21.5856000 Eh     change       -0.3503962E-03 Eh
 * total energy  :   -21.5857699 Eh     change       -0.1699529E-03 Eh
 * total energy  :   -21.5963341 Eh     change       -0.1380418E-04 Eh
 * total energy  :   -21.5963477 Eh     change       -0.1364124E-04 Eh
 * total energy  :   -21.5963573 Eh     change       -0.9533392E-05 Eh
 * total energy  :   -21.5963634 Eh     change       -0.6147920E-05 Eh
 * total energy  :   -21.5963698 Eh     change       -0.6366971E-05 Eh
 * total energy  :   -21.5963655 Eh     change        0.4303037E-05 Eh
 * total energy  :   -21.5963737 Eh     change       -0.8246733E-05 Eh
 * total energy  :   -21.5963797 Eh     change       -0.6011313E-05 Eh
 * total energy  :   -21.5963810 Eh     change       -0.1225233E-05 Eh
   *** GEOMETRY OPTIMIZATION CONVERGED AFTER 47 ITERATIONS ***

 final structure:
================
12
 xtb: 6.2.3 (830e466)
C         2.08519168814971    1.68015664985396   -3.28301108362516
C         0.14082950626737    1.04237915003229   -0.23791677308216
C         0.96588148720398   -0.06597390147270   -0.83125936864910
O         0.97684596539554    2.14552213278259   -3.25555005404235
O         0.56708584965864    2.34112117005454   -0.49130459688503
O         1.84303054333612    0.03271619833762   -1.64819937384349
H         0.62488551704283    2.48398297058466   -1.45303830292451
H         2.90750259718781    2.07314089436699   -2.66872773509385
H         2.36914514029600    0.88163437521178   -3.98166181932730
H         0.66906544627462   -1.06081021684566   -0.44311748684322
H        -0.89287341235911    0.86935262545421   -0.59317859379673
H         0.13242967154666    0.91637795163946    0.85117518811295

          :  Hamiltonian                  GFN2-xTB          :
         :: total energy             -21.596380966904 Eh    ::
         :: gradient norm              0.000890283482 Eh/a0 ::
         :: HOMO-LUMO gap              3.203458651627 eV    ::
         :: SCC energy               -21.789448512819 Eh    ::
         :: -> dispersion             -0.006042881673 Eh    ::
         :: repulsion energy           0.193059433467 Eh    ::

    * Orbital Energies and Occupations

         #    Occupation            Energy/Eh            Energy/eV
      -------------------------------------------------------------
         1        2.0000           -0.7470007             -20.3269
       ...           ...                  ...                  ...
         6        2.0000           -0.6175551             -16.8045
         7        2.0000           -0.6018448             -16.3770
         8        2.0000           -0.5846072             -15.9080
         9        2.0000           -0.5760511             -15.6751
        10        2.0000           -0.5656356             -15.3917
        11        2.0000           -0.5466066             -14.8739
        12        2.0000           -0.5364005             -14.5962
        13        2.0000           -0.5312739             -14.4567
        14        2.0000           -0.5245972             -14.2750
        15        2.0000           -0.4852332             -13.2039
        16        2.0000           -0.4469838             -12.1630
        17        2.0000           -0.4153309             -11.3017
        18        2.0000           -0.4114238             -11.1954 (HOMO)
        19                         -0.2936989              -7.9920 (LUMO)
        20                         -0.2691835              -7.3249
        21                          0.0436208               1.1870
        22                          0.0970793               2.6417
        23                          0.1092995               2.9742
        24                          0.1210832               3.2948
        25                          0.1485554               4.0424
        26                          0.2014535               5.4818
        27                          0.2303784               6.2689
        28                          0.2569572               6.9922
        29                          0.5636364              15.3373
        30                          0.5867616              15.9666
      -------------------------------------------------------------
                  HL-Gap            0.1177249 Eh            3.2035 eV

     #   Z        covCN         q      C6AA      Î±(0)
     1   6 C      2.704     0.198    23.778     7.981
     2   6 C      3.674     0.061    19.776     6.372
     3   6 C      2.754     0.203    23.687     7.970
     4   8 O      0.856    -0.330    20.337     6.046
     5   8 O      1.655    -0.433    21.503     6.260
     6   8 O      0.858    -0.308    19.920     5.984
     7   1 H      0.804     0.327     0.644     1.261
     8   1 H      0.923     0.053     2.283     2.363
     9   1 H      0.923     0.051     2.311     2.377
    10   1 H      0.922     0.034     2.530     2.488
    11   1 H      0.922     0.063     2.164     2.300
    12   1 H      0.924     0.081     1.968     2.194

Wiberg/Mayer (AO) data.
largest (>0.10) Wiberg bond orders for each atom
          total WBO             WBO to atom ...

molecular dipole:
                 x           y           z       tot (Debye)
 q only:       -0.117      -0.546       0.301
   full:       -0.104      -0.834       0.252       2.230

           -------------------------------------------------
          | TOTAL ENERGY              -21.596380966904 Eh   |
          | GRADIENT NORM               0.000890283482 Eh/Î± |
          | HOMO-LUMO GAP               3.203458651627 eV   |
           -------------------------------------------------

 * finished run on 2020/12/23 at 21:43:05.561
