   * xtb version 6.2.3 (830e466) compiled by 'ehlert@majestix' on 2020-03-16
          program call               : xtb -c 0 -u 0 -a 1.0 --iterations 100 --opt normal --namespace product_32 /scratch/bell/zhao922/YARP/paper-example/potential_product/test/reaction_channel/pp_0/pp_7_0.xyz
          number of atoms            :                    12
          number of electrons        :                    36
          charge                     :                     0
          spin                       :                   0.0
          :  Hamiltonian                  GFN2-xTB          :
 * total energy  :   -21.5162380 Eh     change        0.4922533E-09 Eh
 * total energy  :   -21.5280130 Eh     change       -0.1177503E-01 Eh
 * total energy  :   -21.5309557 Eh     change       -0.2942666E-02 Eh
 * total energy  :   -21.5311282 Eh     change       -0.1724583E-03 Eh
 * total energy  :   -21.5318842 Eh     change       -0.7560167E-03 Eh
 * total energy  :   -21.5320655 Eh     change       -0.1813420E-03 Eh
 * total energy  :   -21.5323365 Eh     change       -0.2709932E-03 Eh
 * total energy  :   -21.5325112 Eh     change       -0.1746998E-03 Eh
 * total energy  :   -21.5325999 Eh     change       -0.8869674E-04 Eh
 * total energy  :   -21.5327546 Eh     change       -0.1546926E-03 Eh
 * total energy  :   -21.5363160 Eh     change       -0.3300810E-04 Eh
 * total energy  :   -21.5363428 Eh     change       -0.2684187E-04 Eh
 * total energy  :   -21.5363460 Eh     change       -0.3198968E-05 Eh
 * total energy  :   -21.5363470 Eh     change       -0.9558618E-06 Eh
 * total energy  :   -21.5363789 Eh     change       -0.3193916E-04 Eh
 * total energy  :   -21.5363873 Eh     change       -0.8327253E-05 Eh
 * total energy  :   -21.5363893 Eh     change       -0.1996806E-05 Eh
 * total energy  :   -21.5363943 Eh     change       -0.5065598E-05 Eh
 * total energy  :   -21.5363945 Eh     change       -0.2201737E-06 Eh
   *** GEOMETRY OPTIMIZATION CONVERGED AFTER 68 ITERATIONS ***

 final structure:
================
12
 xtb: 6.2.3 (830e466)
C         2.38404472857638    2.20382313936707   -0.56116302382740
C         1.36083298074739    2.27943442505679    0.27108443001829
C         0.18660025735377   -0.75800112569283   -3.43092999769374
O         0.71629540138217    0.04106154900980   -2.50018706334902
O        -0.12010087752190    1.13306791698487   -2.18519744877191
O         0.75456395264344   -1.72815514825673   -3.81512945456049
H         0.40038580720773    1.60112786606543   -1.49333111779546
H         2.69303141351043    3.04320993523249   -1.16347860926146
H         2.96176392208416    1.30104236530343   -0.67503789708648
H        -0.80587878316449   -0.41003556644052   -3.76995840594448
H         1.06554012596475    1.44602432078681    0.88873115951317
H         0.79192107121612    3.18700032258392    0.39877742875898

          :  Hamiltonian                  GFN2-xTB          :
         :: total energy             -21.536394548835 Eh    ::
         :: gradient norm              0.000817001658 Eh/a0 ::
         :: HOMO-LUMO gap              5.019566166063 eV    ::
         :: SCC energy               -21.747736866254 Eh    ::
         :: -> dispersion             -0.005004833187 Eh    ::
         :: repulsion energy           0.211337452558 Eh    ::

    * Orbital Energies and Occupations

         #    Occupation            Energy/Eh            Energy/eV
      -------------------------------------------------------------
         1        2.0000           -0.7802627             -21.2320
       ...           ...                  ...                  ...
         6        2.0000           -0.6376788             -17.3521
         7        2.0000           -0.6246463             -16.9975
         8        2.0000           -0.6065627             -16.5054
         9        2.0000           -0.5739022             -15.6167
        10        2.0000           -0.5544544             -15.0875
        11        2.0000           -0.5439554             -14.8018
        12        2.0000           -0.5425968             -14.7648
        13        2.0000           -0.5307040             -14.4412
        14        2.0000           -0.4962654             -13.5041
        15        2.0000           -0.4652815             -12.6610
        16        2.0000           -0.4542557             -12.3609
        17        2.0000           -0.4446146             -12.0986
        18        2.0000           -0.4424801             -12.0405 (HOMO)
        19                         -0.2580144              -7.0209 (LUMO)
        20                         -0.2374158              -6.4604
        21                         -0.1846176              -5.0237
        22                          0.1030940               2.8053
        23                          0.1187856               3.2323
        24                          0.1294585               3.5227
        25                          0.1362516               3.7076
        26                          0.1863554               5.0710
        27                          0.2397997               6.5253
        28                          0.4133179              11.2470
        29                          0.5655871              15.3904
        30                          0.6343206              17.2607
      -------------------------------------------------------------
                  HL-Gap            0.1844657 Eh            5.0196 eV

     #   Z        covCN         q      C6AA      Î±(0)
     1   6 C      2.832    -0.079    29.954     8.969
     2   6 C      2.832    -0.089    30.211     9.007
     3   6 C      2.636     0.342    21.192     7.530
     4   8 O      1.791    -0.135    16.333     5.457
     5   8 O      1.744    -0.304    19.061     5.895
     6   8 O      0.856    -0.326    20.252     6.034
     7   1 H      0.802     0.342     0.608     1.225
     8   1 H      0.926     0.050     2.320     2.382
     9   1 H      0.926     0.057     2.239     2.340
    10   1 H      0.922     0.045     2.383     2.414
    11   1 H      0.926     0.051     2.313     2.378
    12   1 H      0.926     0.046     2.365     2.405

Wiberg/Mayer (AO) data.
largest (>0.10) Wiberg bond orders for each atom
          total WBO             WBO to atom ...

molecular dipole:
                 x           y           z       tot (Debye)
 q only:       -0.107       1.046       0.716
   full:       -0.138       1.248       0.851       3.855

           -------------------------------------------------
          | TOTAL ENERGY              -21.536394548835 Eh   |
          | GRADIENT NORM               0.000817001658 Eh/Î± |
          | HOMO-LUMO GAP               5.019566166063 eV   |
           -------------------------------------------------

 * finished run on 2020/12/23 at 21:43:22.464
