   * xtb version 6.2.3 (830e466) compiled by 'ehlert@majestix' on 2020-03-16
          program call               : xtb -c 0 -u 0 -a 1.0 --iterations 100 --opt normal --namespace product_6 /scratch/bell/zhao922/YARP/paper-example/potential_product/test/reaction_channel/pp_0/pp_13_2.xyz
          number of atoms            :                    12
          number of electrons        :                    36
          charge                     :                     0
          spin                       :                   0.0
          :  Hamiltonian                  GFN2-xTB          :
 * total energy  :   -21.4905082 Eh     change       -0.1531372E-08 Eh
 * total energy  :   -21.5038588 Eh     change       -0.1335069E-01 Eh
 * total energy  :   -21.5068861 Eh     change       -0.3027288E-02 Eh
 * total energy  :   -21.5073681 Eh     change       -0.4820060E-03 Eh
 * total energy  :   -21.5076132 Eh     change       -0.2450540E-03 Eh
 * total energy  :   -21.5078660 Eh     change       -0.2527603E-03 Eh
 * total energy  :   -21.5081342 Eh     change       -0.2682416E-03 Eh
 * total energy  :   -21.5083104 Eh     change       -0.1761578E-03 Eh
 * total energy  :   -21.5083905 Eh     change       -0.8018282E-04 Eh
 * total energy  :   -21.5085161 Eh     change       -0.1255300E-03 Eh
 * total energy  :   -21.5099508 Eh     change       -0.3557752E-04 Eh
 * total energy  :   -21.5099533 Eh     change       -0.2487598E-05 Eh
 * total energy  :   -21.5099823 Eh     change       -0.2897316E-04 Eh
 * total energy  :   -21.5099938 Eh     change       -0.1153893E-04 Eh
 * total energy  :   -21.5100085 Eh     change       -0.1469636E-04 Eh
 * total energy  :   -21.5100194 Eh     change       -0.1086827E-04 Eh
 * total energy  :   -21.5100208 Eh     change       -0.1361190E-05 Eh
 * total energy  :   -21.5100305 Eh     change       -0.9701145E-05 Eh
 * total energy  :   -21.5100350 Eh     change       -0.4559981E-05 Eh
   *** GEOMETRY OPTIMIZATION CONVERGED AFTER 47 ITERATIONS ***

 final structure:
================
12
 xtb: 6.2.3 (830e466)
C         1.39951081953032    1.71539785300474   -1.21178563001234
C         0.83324794177102    0.59670214017584   -0.73491698269780
C         1.64492653254358   -0.58894819013464   -0.52070319396430
O         0.69552672650051    2.82666416678702   -1.42672723346063
O         1.50532556332049    3.87365792993720   -1.94079940984879
O         2.83028991022252   -0.67758399657090   -0.73458549832912
H         0.86896971372520    4.58624100181494   -2.09660154333903
H         2.45842913454880    1.75181335569357   -1.44241837416406
H        -0.13439771026953    0.09993077540769   -3.32160184238933
H         1.07195248243240   -1.45300003336008   -0.13378891524435
H        -0.56586049388785    0.05147720381333   -3.96764288219723
H        -0.21894062043050    0.55725779342918   -0.50423849434971

          :  Hamiltonian                  GFN2-xTB          :
         :: total energy             -21.510035009050 Eh    ::
         :: gradient norm              0.000764708157 Eh/a0 ::
         :: HOMO-LUMO gap              3.071121766421 eV    ::
         :: SCC energy               -21.727897648415 Eh    ::
         :: -> dispersion             -0.005601996799 Eh    ::
         :: repulsion energy           0.217851942280 Eh    ::

    * Orbital Energies and Occupations

         #    Occupation            Energy/Eh            Energy/eV
      -------------------------------------------------------------
         1        2.0000           -0.7725604             -21.0224
       ...           ...                  ...                  ...
         6        2.0000           -0.6416072             -17.4590
         7        2.0000           -0.6092901             -16.5796
         8        2.0000           -0.6027810             -16.4025
         9        2.0000           -0.5748999             -15.6438
        10        2.0000           -0.5536203             -15.0648
        11        2.0000           -0.5353908             -14.5687
        12        2.0000           -0.5322098             -14.4822
        13        2.0000           -0.5185131             -14.1095
        14        2.0000           -0.4954645             -13.4823
        15        2.0000           -0.4776522             -12.9976
        16        2.0000           -0.4684260             -12.7465
        17        2.0000           -0.4178895             -11.3714
        18        2.0000           -0.4025583             -10.9542 (HOMO)
        19                         -0.2896966              -7.8830 (LUMO)
        20                         -0.1919090              -5.2221
        21                         -0.1785364              -4.8582
        22                          0.0950665               2.5869
        23                          0.0963856               2.6228
        24                          0.1177758               3.2048
        25                          0.1271903               3.4610
        26                          0.1824205               4.9639
        27                          0.2052588               5.5854
        28                          0.4247717              11.5586
        29                          0.4755864              12.9414
        30                          0.6538776              17.7929
      -------------------------------------------------------------
                  HL-Gap            0.1128616 Eh            3.0711 eV

     #   Z        covCN         q      C6AA      Î±(0)
     1   6 C      2.778     0.137    24.995     8.189
     2   6 C      2.888    -0.095    30.381     9.037
     3   6 C      2.770     0.207    23.599     7.956
     4   8 O      1.787    -0.119    16.097     5.418
     5   8 O      1.741    -0.298    18.946     5.877
     6   8 O      0.856    -0.349    20.689     6.098
     7   1 H      0.804     0.334     0.627     1.244
     8   1 H      0.925     0.101     1.772     2.082
     9   1 H      0.808    -0.003     3.168     2.795
    10   1 H      0.922     0.020     2.731     2.584
    11   1 H      0.808     0.000     3.100     2.765
    12   1 H      0.926     0.064     2.157     2.297

Wiberg/Mayer (AO) data.
largest (>0.10) Wiberg bond orders for each atom
          total WBO             WBO to atom ...

molecular dipole:
                 x           y           z       tot (Debye)
 q only:       -0.978       0.978      -0.137
   full:       -1.278       1.129      -0.131       4.347

           -------------------------------------------------
          | TOTAL ENERGY              -21.510035009050 Eh   |
          | GRADIENT NORM               0.000764708157 Eh/Î± |
          | HOMO-LUMO GAP               3.071121766421 eV   |
           -------------------------------------------------

 * finished run on 2020/12/23 at 21:40:43.968
