   * xtb version 6.2.3 (830e466) compiled by 'ehlert@majestix' on 2020-03-16
          program call               : xtb -c 0 -u 0 -a 1.0 --iterations 100 --opt normal --namespace product_1 /scratch/bell/zhao922/YARP/paper-example/potential_product/test/reaction_channel/pp_0/pp_11_0.xyz
          number of atoms            :                    12
          number of electrons        :                    36
          charge                     :                     0
          spin                       :                   0.0
          :  Hamiltonian                  GFN2-xTB          :
 * total energy  :   -21.4164426 Eh     change       -0.1059665E+01 Eh
 * total energy  :   -20.4282647 Eh     change        0.9881779E+00 Eh
 * total energy  :   -21.3943430 Eh     change       -0.9660783E+00 Eh
 * total energy  :   -21.4122985 Eh     change       -0.1795544E-01 Eh
 * total energy  :   -21.4275333 Eh     change       -0.1523480E-01 Eh
 * total energy  :   -21.4287920 Eh     change       -0.1258711E-02 Eh
 * total energy  :   -21.4290688 Eh     change       -0.2768726E-03 Eh
 * total energy  :   -21.4291306 Eh     change       -0.6174624E-04 Eh
 * total energy  :   -20.5229827 Eh     change        0.9061479E+00 Eh
 * total energy  :   -21.3807392 Eh     change       -0.8577565E+00 Eh
 * total energy  :   -21.5254319 Eh     change       -0.1020723E-04 Eh
 * total energy  :   -21.5254488 Eh     change       -0.1684725E-04 Eh
 * total energy  :   -21.5254645 Eh     change       -0.1574310E-04 Eh
 * total energy  :   -21.5254771 Eh     change       -0.1256311E-04 Eh
 * total energy  :   -21.5254861 Eh     change       -0.9024396E-05 Eh
 * total energy  :   -21.5254924 Eh     change       -0.6284473E-05 Eh
 * total energy  :   -21.5255034 Eh     change       -0.1094191E-04 Eh
 * total energy  :   -21.5255102 Eh     change       -0.6888884E-05 Eh
 * total energy  :   -21.5255136 Eh     change       -0.3346081E-05 Eh
   *** GEOMETRY OPTIMIZATION CONVERGED AFTER 105 ITERATIONS ***

 final structure:
================
12
 xtb: 6.2.3 (830e466)
C         1.68395961093679    0.82093356985616   -2.82098904314157
C         1.23832536807460   -0.21594650695700   -2.11558167911336
C         1.31668875107205   -0.26164874289711   -0.65599406514408
O         0.88212113686159    3.24035070272219   -0.66091443787191
O        -0.34575396426839    2.84209326004229   -1.25684996174467
O         1.61860233547293    0.66128173136992    0.06457998344400
H         1.22296113903466    2.39409537949414   -0.29820137735155
H         2.12457346118719    1.67649477192711   -2.33541008882087
H         1.62424412734022    0.84846472296628   -3.89583472106821
H         1.06953172367517   -1.24648291828321   -0.22035045723627
H         0.80662043857739   -1.08283230672829   -2.59509363760841
H        -0.85286412797829    3.66277633648650   -1.24515051436220

          :  Hamiltonian                  GFN2-xTB          :
         :: total energy             -21.525513582630 Eh    ::
         :: gradient norm              0.000872906165 Eh/a0 ::
         :: HOMO-LUMO gap              2.792236834777 eV    ::
         :: SCC energy               -21.732597264285 Eh    ::
         :: -> dispersion             -0.005878134896 Eh    ::
         :: repulsion energy           0.207068999833 Eh    ::

    * Orbital Energies and Occupations

         #    Occupation            Energy/Eh            Energy/eV
      -------------------------------------------------------------
         1        2.0000           -0.7268162             -19.7777
       ...           ...                  ...                  ...
         6        2.0000           -0.5956272             -16.2078
         7        2.0000           -0.5852926             -15.9266
         8        2.0000           -0.5745014             -15.6330
         9        2.0000           -0.5691199             -15.4865
        10        2.0000           -0.5486568             -14.9297
        11        2.0000           -0.5321762             -14.4813
        12        2.0000           -0.5307965             -14.4437
        13        2.0000           -0.5073470             -13.8056
        14        2.0000           -0.4847731             -13.1913
        15        2.0000           -0.4673446             -12.7171
        16        2.0000           -0.4489829             -12.2174
        17        2.0000           -0.4161645             -11.3244
        18        2.0000           -0.4111085             -11.1868 (HOMO)
        19                         -0.3084956              -8.3946 (LUMO)
        20                         -0.1908550              -5.1934
        21                         -0.1304672              -3.5502
        22                          0.0875556               2.3825
        23                          0.1127096               3.0670
        24                          0.1377000               3.7470
        25                          0.1634712               4.4483
        26                          0.2039410               5.5495
        27                          0.2163970               5.8885
        28                          0.4191045              11.4044
        29                          0.4830417              13.1442
        30                          0.6557055              17.8427
      -------------------------------------------------------------
                  HL-Gap            0.1026128 Eh            2.7922 eV

     #   Z        covCN         q      C6AA      Î±(0)
     1   6 C      2.841    -0.044    29.081     8.838
     2   6 C      2.886    -0.048    29.179     8.856
     3   6 C      2.765     0.216    23.428     7.927
     4   8 O      1.733    -0.347    19.831     6.013
     5   8 O      1.735    -0.342    19.739     5.999
     6   8 O      0.856    -0.340    20.524     6.074
     7   1 H      0.803     0.348     0.594     1.211
     8   1 H      0.926     0.096     1.822     2.111
     9   1 H      0.926     0.067     2.116     2.275
    10   1 H      0.922     0.024     2.667     2.554
    11   1 H      0.926     0.054     2.266     2.354
    12   1 H      0.805     0.315     0.676     1.292

Wiberg/Mayer (AO) data.
largest (>0.10) Wiberg bond orders for each atom
          total WBO             WBO to atom ...

molecular dipole:
                 x           y           z       tot (Debye)
 q only:       -0.090      -0.548      -0.772
   full:       -0.223      -0.718      -0.809       2.807

           -------------------------------------------------
          | TOTAL ENERGY              -21.525513582630 Eh   |
          | GRADIENT NORM               0.000872906165 Eh/Î± |
          | HOMO-LUMO GAP               2.792236834777 eV   |
           -------------------------------------------------

 * finished run on 2020/12/23 at 21:40:08.860
