   * xtb version 6.2.3 (830e466) compiled by 'ehlert@majestix' on 2020-03-16
          program call               : xtb -c 0 -u 0 -a 1.0 --iterations 100 --opt normal --namespace product_20 /scratch/bell/zhao922/YARP/paper-example/potential_product/test/reaction_channel/pp_0/pp_21_0.xyz
          number of atoms            :                    12
          number of electrons        :                    36
          charge                     :                     0
          spin                       :                   0.0
          :  Hamiltonian                  GFN2-xTB          :
 * total energy  :   -21.6198987 Eh     change        0.1496037E-08 Eh
 * total energy  :   -21.6251907 Eh     change       -0.5291943E-02 Eh
 * total energy  :   -21.6270543 Eh     change       -0.1863647E-02 Eh
 * total energy  :   -21.6275036 Eh     change       -0.4492581E-03 Eh
 * total energy  :   -21.6280371 Eh     change       -0.5334929E-03 Eh
 * total energy  :   -21.6284642 Eh     change       -0.4271181E-03 Eh
 * total energy  :   -21.6287673 Eh     change       -0.3031712E-03 Eh
 * total energy  :   -21.6287688 Eh     change       -0.1503257E-05 Eh
 * total energy  :   -21.6289442 Eh     change       -0.1753087E-03 Eh
 * total energy  :   -21.6290923 Eh     change       -0.1481090E-03 Eh
 * total energy  :   -21.6291634 Eh     change       -0.7112910E-04 Eh
 * total energy  :   -21.6293086 Eh     change       -0.1452269E-03 Eh
 * total energy  :   -21.6294111 Eh     change       -0.1025206E-03 Eh
 * total energy  :   -21.6294901 Eh     change       -0.7900204E-04 Eh
 * total energy  :   -21.6295913 Eh     change       -0.1011460E-03 Eh
 * total energy  :   -21.6296227 Eh     change       -0.3143475E-04 Eh
 * total energy  :   -21.6296432 Eh     change       -0.2042524E-04 Eh
 * total energy  :   -21.6296558 Eh     change       -0.1269441E-04 Eh
 * total energy  :   -21.6296598 Eh     change       -0.3999095E-05 Eh
   *** GEOMETRY OPTIMIZATION CONVERGED AFTER 19 ITERATIONS ***

 final structure:
================
12
 xtb: 6.2.3 (830e466)
C         0.94087247780914    1.14716059024828   -2.48234482088541
C         0.91381175004052    1.07424965393109   -0.93624926220885
C         1.89935125600924    0.01560788113809   -0.48268047961213
O         0.15898593670112    2.22044735326387   -2.93405018209025
O         1.20923046786858    2.32315888299252   -0.38298285201662
O         2.95680210394598    0.21541427958767    0.03117143346248
H         1.06543098427261    2.99700804785285   -1.06307858485485
H         1.95955957676885    1.36557631103591   -2.81230425002566
H         0.61691532326645    0.19307101253735   -2.91435256287540
H         1.53482820219190   -1.01158760913579   -0.69726832094401
H        -0.77105086894237    2.04665377496512   -2.74572516522882
H        -0.09572720993201    0.75282982158302   -0.61594495272048

          :  Hamiltonian                  GFN2-xTB          :
         :: total energy             -21.629659838922 Eh    ::
         :: gradient norm              0.000812820245 Eh/a0 ::
         :: HOMO-LUMO gap              3.602997662749 eV    ::
         :: SCC energy               -21.806662499372 Eh    ::
         :: -> dispersion             -0.006098074552 Eh    ::
         :: repulsion energy           0.176997641094 Eh    ::

    * Orbital Energies and Occupations

         #    Occupation            Energy/Eh            Energy/eV
      -------------------------------------------------------------
         1        2.0000           -0.7323687             -19.9288
       ...           ...                  ...                  ...
         6        2.0000           -0.6164257             -16.7738
         7        2.0000           -0.6076949             -16.5362
         8        2.0000           -0.5862467             -15.9526
         9        2.0000           -0.5842248             -15.8976
        10        2.0000           -0.5575590             -15.1720
        11        2.0000           -0.5538707             -15.0716
        12        2.0000           -0.5402815             -14.7018
        13        2.0000           -0.5267442             -14.3334
        14        2.0000           -0.5006142             -13.6224
        15        2.0000           -0.4850773             -13.1996
        16        2.0000           -0.4574757             -12.4485
        17        2.0000           -0.4351623             -11.8414
        18        2.0000           -0.4102236             -11.1628 (HOMO)
        19                         -0.2778159              -7.5598 (LUMO)
        20                          0.0159857               0.4350
        21                          0.0305064               0.8301
        22                          0.0613103               1.6683
        23                          0.0983620               2.6766
        24                          0.1123166               3.0563
        25                          0.1411526               3.8410
        26                          0.1517583               4.1296
        27                          0.2015206               5.4837
        28                          0.2156858               5.8691
        29                          0.2477252               6.7409
        30                          0.6261398              17.0381
      -------------------------------------------------------------
                  HL-Gap            0.1324077 Eh            3.6030 eV

     #   Z        covCN         q      C6AA      Î±(0)
     1   6 C      3.676     0.068    19.652     6.351
     2   6 C      3.723     0.086    19.251     6.266
     3   6 C      2.758     0.202    23.705     7.973
     4   8 O      1.656    -0.426    21.358     6.239
     5   8 O      1.656    -0.423    21.298     6.230
     6   8 O      0.856    -0.274    19.315     5.892
     7   1 H      0.805     0.314     0.680     1.295
     8   1 H      0.924     0.069     2.096     2.264
     9   1 H      0.924     0.029     2.598     2.521
    10   1 H      0.921     0.018     2.757     2.597
    11   1 H      0.805     0.298     0.727     1.340
    12   1 H      0.922     0.037     2.488     2.467

Wiberg/Mayer (AO) data.
largest (>0.10) Wiberg bond orders for each atom
          total WBO             WBO to atom ...

molecular dipole:
                 x           y           z       tot (Debye)
 q only:       -1.094      -0.287      -0.778
   full:       -1.500      -0.522      -0.987       4.752

           -------------------------------------------------
          | TOTAL ENERGY              -21.629659838922 Eh   |
          | GRADIENT NORM               0.000812820245 Eh/Î± |
          | HOMO-LUMO GAP               3.602997662749 eV   |
           -------------------------------------------------

 * finished run on 2020/12/23 at 21:42:13.466
