   * xtb version 6.2.3 (830e466) compiled by 'ehlert@majestix' on 2020-03-16
          program call               : xtb -c 0 -u 0 -a 1.0 --iterations 100 --opt normal --namespace product_26 /scratch/bell/zhao922/YARP/paper-example/potential_product/test/reaction_channel/pp_0/pp_25_0.xyz
          number of atoms            :                    12
          number of electrons        :                    36
          charge                     :                     0
          spin                       :                   0.0
          :  Hamiltonian                  GFN2-xTB          :
 * total energy  :   -21.5495242 Eh     change       -0.9310437E-08 Eh
 * total energy  :   -21.5671798 Eh     change       -0.1765553E-01 Eh
 * total energy  :   -21.5708212 Eh     change       -0.3641450E-02 Eh
 * total energy  :   -21.5711674 Eh     change       -0.3462135E-03 Eh
 * total energy  :   -21.5712408 Eh     change       -0.7333420E-04 Eh
 * total energy  :   -21.5712993 Eh     change       -0.5854496E-04 Eh
 * total energy  :   -21.5713421 Eh     change       -0.4283148E-04 Eh
 * total energy  :   -21.5713744 Eh     change       -0.3229628E-04 Eh
 * total energy  :   -21.5713945 Eh     change       -0.2003698E-04 Eh
 * total energy  :   -21.5714052 Eh     change       -0.1073070E-04 Eh
 * total energy  :   -21.5714213 Eh     change       -0.1609819E-04 Eh
 * total energy  :   -21.5714298 Eh     change       -0.8472968E-05 Eh
 * total energy  :   -21.5714399 Eh     change       -0.1011657E-04 Eh
 * total energy  :   -21.5714445 Eh     change       -0.4551156E-05 Eh
   *** GEOMETRY OPTIMIZATION CONVERGED AFTER 14 ITERATIONS ***

 final structure:
================
12
 xtb: 6.2.3 (830e466)
C         0.64178564719705    1.20091745360857   -2.02259870533668
C         0.02833277346848    0.45994591371656   -0.84299556551094
C         0.71099687109022    1.16663369868850    0.32395979832616
O         1.01571384336101    2.46891691473197   -1.50008998110685
O         1.29377064166831    2.29145875016148   -0.12662483065895
O         0.76646024522815    0.83500850218329    1.46603029052697
H         3.39585405097273    1.71578919979972   -4.21730150510156
H         1.52751767267459    0.67901487778170   -2.40888793689599
H        -0.05130192170745    1.40944564539011   -2.83756465730126
H         3.87159831504496    1.10451079495105   -4.28700446248306
H        -1.04847686714510    0.61437183855640   -0.75501630546970
H         0.23673872814627   -0.60640358957035   -0.82770613898656

          :  Hamiltonian                  GFN2-xTB          :
         :: total energy             -21.571444456908 Eh    ::
         :: gradient norm              0.000739440356 Eh/a0 ::
         :: HOMO-LUMO gap              5.095709177997 eV    ::
         :: SCC energy               -21.760382074589 Eh    ::
         :: -> dispersion             -0.005570635935 Eh    ::
         :: repulsion energy           0.188932835357 Eh    ::

    * Orbital Energies and Occupations

         #    Occupation            Energy/Eh            Energy/eV
      -------------------------------------------------------------
         1        2.0000           -0.7867406             -21.4083
       ...           ...                  ...                  ...
         6        2.0000           -0.6474493             -17.6180
         7        2.0000           -0.6348131             -17.2741
         8        2.0000           -0.6156033             -16.7514
         9        2.0000           -0.5837954             -15.8859
        10        2.0000           -0.5697916             -15.5048
        11        2.0000           -0.5638995             -15.3445
        12        2.0000           -0.5450735             -14.8322
        13        2.0000           -0.5380857             -14.6421
        14        2.0000           -0.5187612             -14.1162
        15        2.0000           -0.4967185             -13.5164
        16        2.0000           -0.4729823             -12.8705
        17        2.0000           -0.4501072             -12.2480
        18        2.0000           -0.4447092             -12.1012 (HOMO)
        19                         -0.2574453              -7.0054 (LUMO)
        20                         -0.1839765              -5.0063
        21                          0.0010111               0.0275
        22                          0.0467327               1.2717
        23                          0.0728247               1.9817
        24                          0.1027125               2.7949
        25                          0.1153971               3.1401
        26                          0.1224875               3.3331
        27                          0.1879418               5.1142
        28                          0.2411203               6.5612
        29                          0.2490101               6.7759
        30                          0.6521147              17.7449
      -------------------------------------------------------------
                  HL-Gap            0.1872639 Eh            5.0957 eV

     #   Z        covCN         q      C6AA      Î±(0)
     1   6 C      3.709     0.072    19.502     6.312
     2   6 C      3.803    -0.099    22.377     6.735
     3   6 C      2.723     0.365    20.814     7.469
     4   8 O      1.793    -0.173    16.904     5.552
     5   8 O      1.797    -0.131    16.269     5.447
     6   8 O      0.856    -0.348    20.677     6.097
     7   1 H      0.811     0.002     3.067     2.750
     8   1 H      0.923     0.058     2.217     2.328
     9   1 H      0.925     0.082     1.959     2.189
    10   1 H      0.811    -0.002     3.138     2.782
    11   1 H      0.924     0.088     1.894     2.152
    12   1 H      0.925     0.085     1.931     2.173

Wiberg/Mayer (AO) data.
largest (>0.10) Wiberg bond orders for each atom
          total WBO             WBO to atom ...

molecular dipole:
                 x           y           z       tot (Debye)
 q only:       -0.560      -0.741      -1.308
   full:       -0.607      -0.820      -1.481       4.571

           -------------------------------------------------
          | TOTAL ENERGY              -21.571444456908 Eh   |
          | GRADIENT NORM               0.000739440356 Eh/Î± |
          | HOMO-LUMO GAP               5.095709177997 eV   |
           -------------------------------------------------

 * finished run on 2020/12/23 at 21:42:44.863
