   * xtb version 6.2.3 (830e466) compiled by 'ehlert@majestix' on 2020-03-16
          program call               : xtb -c 0 -u 0 -a 1.0 --iterations 100 --opt normal --namespace product_0 /scratch/bell/zhao922/YARP/paper-example/potential_product/test/reaction_channel/pp_0/pp_10_0.xyz
          number of atoms            :                    12
          number of electrons        :                    36
          charge                     :                     0
          spin                       :                   0.0
          :  Hamiltonian                  GFN2-xTB          :
 * total energy  :   -21.5822668 Eh     change       -0.1369919E-07 Eh
 * total energy  :   -21.5950370 Eh     change       -0.1277012E-01 Eh
 * total energy  :   -21.5978593 Eh     change       -0.2822378E-02 Eh
 * total energy  :   -21.5981436 Eh     change       -0.2842642E-03 Eh
 * total energy  :   -21.5983087 Eh     change       -0.1650619E-03 Eh
 * total energy  :   -21.5985370 Eh     change       -0.2283443E-03 Eh
 * total energy  :   -21.5987070 Eh     change       -0.1699570E-03 Eh
 * total energy  :   -21.5988995 Eh     change       -0.1925526E-03 Eh
 * total energy  :   -21.5989742 Eh     change       -0.7468215E-04 Eh
 * total energy  :   -21.5991452 Eh     change       -0.1709518E-03 Eh
 * total energy  :   -21.6004073 Eh     change       -0.2158622E-04 Eh
 * total energy  :   -21.6004352 Eh     change       -0.2784332E-04 Eh
 * total energy  :   -21.6004755 Eh     change       -0.4036381E-04 Eh
 * total energy  :   -21.6004941 Eh     change       -0.1861037E-04 Eh
 * total energy  :   -21.6005036 Eh     change       -0.9446019E-05 Eh
 * total energy  :   -21.6005067 Eh     change       -0.3144797E-05 Eh
 * total energy  :   -21.6005129 Eh     change       -0.6199741E-05 Eh
 * total energy  :   -21.6005165 Eh     change       -0.3577895E-05 Eh
 * total energy  :   -21.6005200 Eh     change       -0.3539659E-05 Eh
   *** GEOMETRY OPTIMIZATION CONVERGED AFTER 46 ITERATIONS ***

 final structure:
================
12
 xtb: 6.2.3 (830e466)
C         1.14663471871067   -0.02918580705093   -2.34626828615168
C         0.56504295472002    0.53077899635902   -1.04466695563121
C         1.53106954238825    1.51173222549196   -0.44201357531479
O         1.54941441919314    2.76974831593072   -0.94659510883287
O         0.61462493528159    3.04190991050157   -1.97609202859099
O         2.31322201711347    1.28655069386730    0.43499226181313
H         0.77805742930142    3.98144186659586   -2.14838352621855
H         2.10613671264531   -0.50417344666102   -2.15622475021150
H         1.28421946281140    0.76468229734026   -3.07593979181297
H         0.46730123708810   -0.76776785140361   -2.76309192548915
H        -0.38432091315795    1.02768295362554   -1.24712754305671
H         0.41760748390475   -0.27380015459665   -0.32441877050259

          :  Hamiltonian                  GFN2-xTB          :
         :: total energy             -21.600520030025 Eh    ::
         :: gradient norm              0.000954426772 Eh/a0 ::
         :: HOMO-LUMO gap              4.890991896270 eV    ::
         :: SCC energy               -21.783482852119 Eh    ::
         :: -> dispersion             -0.006072779761 Eh    ::
         :: repulsion energy           0.182954561875 Eh    ::

    * Orbital Energies and Occupations

         #    Occupation            Energy/Eh            Energy/eV
      -------------------------------------------------------------
         1        2.0000           -0.7693184             -20.9342
       ...           ...                  ...                  ...
         6        2.0000           -0.6308150             -17.1654
         7        2.0000           -0.6172196             -16.7954
         8        2.0000           -0.6021181             -16.3845
         9        2.0000           -0.5705579             -15.5257
        10        2.0000           -0.5495675             -14.9545
        11        2.0000           -0.5386013             -14.6561
        12        2.0000           -0.5249333             -14.2842
        13        2.0000           -0.5138230             -13.9818
        14        2.0000           -0.4881205             -13.2824
        15        2.0000           -0.4749403             -12.9238
        16        2.0000           -0.4595875             -12.5060
        17        2.0000           -0.4545182             -12.3681
        18        2.0000           -0.4246603             -11.5556 (HOMO)
        19                         -0.2449196              -6.6646 (LUMO)
        20                         -0.1844872              -5.0202
        21                          0.0836971               2.2775
        22                          0.0953774               2.5954
        23                          0.1089245               2.9640
        24                          0.1366202               3.7176
        25                          0.1634805               4.4485
        26                          0.1738567               4.7309
        27                          0.2166125               5.8943
        28                          0.2442523               6.6464
        29                          0.3112333               8.4691
        30                          0.6386504              17.3786
      -------------------------------------------------------------
                  HL-Gap            0.1797406 Eh            4.8910 eV

     #   Z        covCN         q      C6AA      Î±(0)
     1   6 C      3.754    -0.101    22.481     6.761
     2   6 C      3.801    -0.086    22.133     6.698
     3   6 C      2.692     0.363    20.835     7.470
     4   8 O      1.788    -0.158    16.677     5.514
     5   8 O      1.739    -0.296    18.911     5.872
     6   8 O      0.857    -0.361    20.921     6.133
     7   1 H      0.804     0.338     0.616     1.233
     8   1 H      0.925     0.050     2.323     2.383
     9   1 H      0.925     0.055     2.255     2.348
    10   1 H      0.925     0.052     2.295     2.369
    11   1 H      0.924     0.076     2.024     2.225
    12   1 H      0.925     0.067     2.114     2.274

Wiberg/Mayer (AO) data.
largest (>0.10) Wiberg bond orders for each atom
          total WBO             WBO to atom ...

molecular dipole:
                 x           y           z       tot (Debye)
 q only:       -0.771       0.165      -0.985
   full:       -0.848       0.362      -1.097       3.641

           -------------------------------------------------
          | TOTAL ENERGY              -21.600520030025 Eh   |
          | GRADIENT NORM               0.000954426772 Eh/Î± |
          | HOMO-LUMO GAP               4.890991896270 eV   |
           -------------------------------------------------

 * finished run on 2020/12/23 at 21:39:51.567
