   * xtb version 6.2.3 (830e466) compiled by 'ehlert@majestix' on 2020-03-16
          program call               : xtb -c 0 -u 0 -a 1.0 --iterations 100 --opt normal --namespace product_33 /scratch/bell/zhao922/YARP/paper-example/potential_product/test/reaction_channel/pp_0/pp_8_0.xyz
          number of atoms            :                    12
          number of electrons        :                    36
          charge                     :                     0
          spin                       :                   0.0
          :  Hamiltonian                  GFN2-xTB          :
 * total energy  :   -21.5051447 Eh     change       -0.2408008E-08 Eh
 * total energy  :   -21.5136109 Eh     change       -0.8466155E-02 Eh
 * total energy  :   -21.5154691 Eh     change       -0.1858217E-02 Eh
 * total energy  :   -21.5159782 Eh     change       -0.5091074E-03 Eh
 * total energy  :   -21.5163313 Eh     change       -0.3531352E-03 Eh
 * total energy  :   -21.5167853 Eh     change       -0.4539321E-03 Eh
 * total energy  :   -21.5169030 Eh     change       -0.1177560E-03 Eh
 * total energy  :   -21.5169565 Eh     change       -0.5347855E-04 Eh
 * total energy  :   -21.5177804 Eh     change       -0.8238839E-03 Eh
 * total energy  :   -21.5176300 Eh     change        0.1504357E-03 Eh
 * total energy  :   -21.5278672 Eh     change       -0.4701103E-04 Eh
 * total energy  :   -21.5279013 Eh     change       -0.3404432E-04 Eh
 * total energy  :   -21.5279307 Eh     change       -0.2946946E-04 Eh
 * total energy  :   -21.5279191 Eh     change        0.1160148E-04 Eh
 * total energy  :   -21.5279565 Eh     change       -0.3734159E-04 Eh
 * total energy  :   -21.5279630 Eh     change       -0.6562538E-05 Eh
 * total energy  :   -21.5279700 Eh     change       -0.6941902E-05 Eh
 * total energy  :   -21.5279778 Eh     change       -0.7803635E-05 Eh
 * total energy  :   -21.5279810 Eh     change       -0.3217982E-05 Eh
   *** GEOMETRY OPTIMIZATION CONVERGED AFTER 78 ITERATIONS ***

 final structure:
================
12
 xtb: 6.2.3 (830e466)
C         3.04086190641740    0.44197866493328   -2.21677110089403
C         1.82661828745349    0.74303076890527   -1.76720171189619
C         0.92417870321441   -0.28250244807655   -1.25566842053927
O        -1.35247134489393    2.48789244882096   -0.84900504445588
O        -0.21107433460590    3.24195712176111   -1.24180616878248
O        -0.19225943850501   -0.07749252717651   -0.83983102370189
H        -0.55128412337673    4.14427629627635   -1.20619931969782
H         3.71142011170057    1.19322552740439   -2.59774776941477
H         3.40420220206426   -0.57385861562923   -2.22037278337620
H         1.33787552315242   -1.30784237187965   -1.26957163890698
H        -1.00091387229651    1.57111523409990   -0.81230209468892
H         1.45185637967514    1.75782990056262   -1.75933292364733

          :  Hamiltonian                  GFN2-xTB          :
         :: total energy             -21.527981017994 Eh    ::
         :: gradient norm              0.000676669194 Eh/a0 ::
         :: HOMO-LUMO gap              2.571656175702 eV    ::
         :: SCC energy               -21.735650340829 Eh    ::
         :: -> dispersion             -0.005370796127 Eh    ::
         :: repulsion energy           0.207662130631 Eh    ::

    * Orbital Energies and Occupations

         #    Occupation            Energy/Eh            Energy/eV
      -------------------------------------------------------------
         1        2.0000           -0.7297744             -19.8582
       ...           ...                  ...                  ...
         6        2.0000           -0.6053091             -16.4713
         7        2.0000           -0.5899404             -16.0531
         8        2.0000           -0.5735518             -15.6071
         9        2.0000           -0.5546458             -15.0927
        10        2.0000           -0.5518525             -15.0167
        11        2.0000           -0.5500052             -14.9664
        12        2.0000           -0.5248730             -14.2825
        13        2.0000           -0.5020066             -13.6603
        14        2.0000           -0.4957068             -13.4889
        15        2.0000           -0.4732832             -12.8787
        16        2.0000           -0.4549683             -12.3803
        17        2.0000           -0.4183488             -11.3839
        18        2.0000           -0.4067702             -11.0688 (HOMO)
        19                         -0.3122636              -8.4971 (LUMO)
        20                         -0.1932144              -5.2576
        21                         -0.1306953              -3.5564
        22                          0.0784382               2.1344
        23                          0.1154920               3.1427
        24                          0.1482963               4.0353
        25                          0.1562363               4.2514
        26                          0.1910243               5.1980
        27                          0.2363087               6.4303
        28                          0.3871946              10.5361
        29                          0.4973443              13.5334
        30                          0.6576104              17.8945
      -------------------------------------------------------------
                  HL-Gap            0.0945066 Eh            2.5717 eV

     #   Z        covCN         q      C6AA      Î±(0)
     1   6 C      2.843    -0.059    29.451     8.894
     2   6 C      2.886    -0.052    29.292     8.873
     3   6 C      2.767     0.215    23.453     7.931
     4   8 O      1.732    -0.348    19.846     6.015
     5   8 O      1.734    -0.342    19.728     5.997
     6   8 O      0.857    -0.336    20.438     6.061
     7   1 H      0.805     0.314     0.679     1.295
     8   1 H      0.926     0.070     2.089     2.260
     9   1 H      0.926     0.063     2.166     2.302
    10   1 H      0.922     0.027     2.633     2.538
    11   1 H      0.802     0.347     0.596     1.213
    12   1 H      0.925     0.101     1.778     2.085

Wiberg/Mayer (AO) data.
largest (>0.10) Wiberg bond orders for each atom
          total WBO             WBO to atom ...

molecular dipole:
                 x           y           z       tot (Debye)
 q only:        1.259      -0.068      -0.451
   full:        1.452      -0.116      -0.503       3.916

           -------------------------------------------------
          | TOTAL ENERGY              -21.527981017994 Eh   |
          | GRADIENT NORM               0.000676669194 Eh/Î± |
          | HOMO-LUMO GAP               2.571656175702 eV   |
           -------------------------------------------------

 * finished run on 2020/12/23 at 21:43:31.363
