   * xtb version 6.2.3 (830e466) compiled by 'ehlert@majestix' on 2020-03-16
          program call               : xtb -c 0 -u 0 -a 1.0 --iterations 100 --opt normal --namespace product_37 /scratch/bell/zhao922/YARP/paper-example/potential_product/test/reaction_channel/pp_0/pp_9_2.xyz
          number of atoms            :                    12
          number of electrons        :                    36
          charge                     :                     0
          spin                       :                   0.0
          :  Hamiltonian                  GFN2-xTB          :
 * total energy  :   -21.5474115 Eh     change       -0.7373657E-09 Eh
 * total energy  :   -21.5575799 Eh     change       -0.1016844E-01 Eh
 * total energy  :   -21.5593821 Eh     change       -0.1802171E-02 Eh
 * total energy  :   -21.5595368 Eh     change       -0.1547079E-03 Eh
 * total energy  :   -21.5596608 Eh     change       -0.1239605E-03 Eh
 * total energy  :   -21.5597786 Eh     change       -0.1178161E-03 Eh
 * total energy  :   -21.5599275 Eh     change       -0.1488915E-03 Eh
 * total energy  :   -21.5601068 Eh     change       -0.1793257E-03 Eh
 * total energy  :   -21.5602134 Eh     change       -0.1065628E-03 Eh
 * total energy  :   -21.5604417 Eh     change       -0.2283091E-03 Eh
 * total energy  :   -21.5633091 Eh     change       -0.4212316E-04 Eh
 * total energy  :   -21.5633222 Eh     change       -0.1307416E-04 Eh
 * total energy  :   -21.5633384 Eh     change       -0.1623507E-04 Eh
 * total energy  :   -21.5633455 Eh     change       -0.7080195E-05 Eh
 * total energy  :   -21.5633532 Eh     change       -0.7736632E-05 Eh
 * total energy  :   -21.5633575 Eh     change       -0.4286897E-05 Eh
 * total energy  :   -21.5633620 Eh     change       -0.4483927E-05 Eh
 * total energy  :   -21.5633635 Eh     change       -0.1487177E-05 Eh
 * total energy  :   -21.5633648 Eh     change       -0.1302555E-05 Eh
   *** GEOMETRY OPTIMIZATION CONVERGED AFTER 36 ITERATIONS ***

 final structure:
================
12
 xtb: 6.2.3 (830e466)
C         1.03842769265098    0.95166106594310   -1.82471960915098
C         0.13462438462509    1.02648626889428   -0.58772797504114
C         1.91670315545573   -0.28077850729106   -1.75892526064625
O         1.87296044514502    2.07370886023738   -1.95291499115259
O         1.08332455237082    3.20069694583190   -2.33717027976427
O         3.10452397847158   -0.31734893472705   -1.85817004974281
H         1.76290316145643    3.86345486823801   -2.51550143689785
H         0.74215183140476    1.06781961042368    0.31279073124008
H         0.41023448471110    0.85920457805492   -2.72675637852075
H         1.31131460816439   -1.19492147325303   -1.59451373108591
H        -0.51958365642518    0.16101688266286   -0.54597962844367
H        -0.46858463803069    1.92858983498502   -0.64621139079385

          :  Hamiltonian                  GFN2-xTB          :
         :: total energy             -21.563364776964 Eh    ::
         :: gradient norm              0.000626971695 Eh/a0 ::
         :: HOMO-LUMO gap              3.713839127447 eV    ::
         :: SCC energy               -21.738998918035 Eh    ::
         :: -> dispersion             -0.005958190189 Eh    ::
         :: repulsion energy           0.175625300518 Eh    ::

    * Orbital Energies and Occupations

         #    Occupation            Energy/Eh            Energy/eV
      -------------------------------------------------------------
         1        2.0000           -0.7352420             -20.0070
       ...           ...                  ...                  ...
         6        2.0000           -0.6213394             -16.9075
         7        2.0000           -0.6131945             -16.6859
         8        2.0000           -0.5876473             -15.9907
         9        2.0000           -0.5648615             -15.3707
        10        2.0000           -0.5605432             -15.2532
        11        2.0000           -0.5501458             -14.9702
        12        2.0000           -0.5375832             -14.6284
        13        2.0000           -0.5153192             -14.0225
        14        2.0000           -0.4923228             -13.3968
        15        2.0000           -0.4869820             -13.2515
        16        2.0000           -0.4739037             -12.8956
        17        2.0000           -0.4227375             -11.5033
        18        2.0000           -0.4142495             -11.2723 (HOMO)
        19                         -0.2777684              -7.5585 (LUMO)
        20                         -0.1633912              -4.4461
        21                          0.0553061               1.5050
        22                          0.0802681               2.1842
        23                          0.0918652               2.4998
        24                          0.1255164               3.4155
        25                          0.1450639               3.9474
        26                          0.1603564               4.3635
        27                          0.1956793               5.3247
        28                          0.2312797               6.2934
        29                          0.2499001               6.8001
        30                          0.6256743              17.0255
      -------------------------------------------------------------
                  HL-Gap            0.1364811 Eh            3.7138 eV

     #   Z        covCN         q      C6AA      Î±(0)
     1   6 C      3.727     0.105    18.945     6.214
     2   6 C      3.753    -0.120    22.851     6.817
     3   6 C      2.758     0.207    23.610     7.957
     4   8 O      1.777    -0.196    17.249     5.608
     5   8 O      1.733    -0.325    19.424     5.951
     6   8 O      0.856    -0.281    19.447     5.912
     7   1 H      0.805     0.325     0.649     1.266
     8   1 H      0.925     0.060     2.202     2.321
     9   1 H      0.923     0.068     2.112     2.273
    10   1 H      0.922     0.032     2.553     2.499
    11   1 H      0.925     0.048     2.341     2.393
    12   1 H      0.925     0.076     2.025     2.225

Wiberg/Mayer (AO) data.
largest (>0.10) Wiberg bond orders for each atom
          total WBO             WBO to atom ...

molecular dipole:
                 x           y           z       tot (Debye)
 q only:       -0.895       0.108       0.126
   full:       -1.015       0.142       0.079       2.614

           -------------------------------------------------
          | TOTAL ENERGY              -21.563364776964 Eh   |
          | GRADIENT NORM               0.000626971695 Eh/Î± |
          | HOMO-LUMO GAP               3.713839127447 eV   |
           -------------------------------------------------

 * finished run on 2020/12/23 at 21:43:56.463
