   * xtb version 6.2.3 (830e466) compiled by 'ehlert@majestix' on 2020-03-16
          program call               : xtb -c 0 -u 0 -a 1.0 --iterations 100 --opt normal --namespace product_2 /scratch/bell/zhao922/YARP/paper-example/potential_product/test/reaction_channel/pp_0/pp_12_0.xyz
          number of atoms            :                    12
          number of electrons        :                    36
          charge                     :                     0
          spin                       :                   0.0
          :  Hamiltonian                  GFN2-xTB          :
 * total energy  :   -21.4896463 Eh     change       -0.4333160E-08 Eh
 * total energy  :   -21.5061608 Eh     change       -0.1651447E-01 Eh
 * total energy  :   -21.5073686 Eh     change       -0.1207788E-02 Eh
 * total energy  :   -21.4821212 Eh     change        0.2524735E-01 Eh
 * total energy  :   -21.5098153 Eh     change       -0.2769401E-01 Eh
 * total energy  :   -21.5106613 Eh     change       -0.8460186E-03 Eh
 * total energy  :   -21.5107172 Eh     change       -0.5590160E-04 Eh
 * total energy  :   -21.5107842 Eh     change       -0.6704079E-04 Eh
 * total energy  :   -21.5108531 Eh     change       -0.6887973E-04 Eh
 * total energy  :   -21.5109280 Eh     change       -0.7491311E-04 Eh
 * total energy  :   -21.5131617 Eh     change       -0.9231704E-05 Eh
 * total energy  :   -21.5131762 Eh     change       -0.1453488E-04 Eh
 * total energy  :   -21.5131861 Eh     change       -0.9884317E-05 Eh
 * total energy  :   -21.5132104 Eh     change       -0.2431352E-04 Eh
 * total energy  :   -21.5131908 Eh     change        0.1968437E-04 Eh
 * total energy  :   -21.5131869 Eh     change        0.3852060E-05 Eh
 * total energy  :   -21.5132389 Eh     change       -0.5200064E-04 Eh
 * total energy  :   -21.5132455 Eh     change       -0.6608689E-05 Eh
 * total energy  :   -21.5132505 Eh     change       -0.4975631E-05 Eh
   *** GEOMETRY OPTIMIZATION CONVERGED AFTER 73 ITERATIONS ***

 final structure:
================
12
 xtb: 6.2.3 (830e466)
C         0.11004721250754    1.38693155661839   -2.45830515893055
C        -0.41119731318982    1.03459837770798   -1.29947395018967
C         2.46701908074763   -0.20849557480353   -0.82567913306460
O         1.10127446172519    2.28631537339265   -2.70089301959552
O         1.63497188502212    2.88331669064621   -1.52936568237023
O         2.10440852094695   -1.01306034597328   -0.02057383746401
H         1.54085024615281    3.83210847521531   -1.69512885884486
H         2.75963216940456    0.81841181252649   -0.55779750615604
H        -0.19254442259986    0.99259836795914   -3.41877410378832
H         2.53828558867373   -0.43813951479989   -1.90280691763284
H        -1.19520385359670    0.30488117515886   -1.25352893065531
H        -0.06854357579157    1.46012360635057   -0.37346290130887

          :  Hamiltonian                  GFN2-xTB          :
         :: total energy             -21.513250490494 Eh    ::
         :: gradient norm              0.000858855231 Eh/a0 ::
         :: HOMO-LUMO gap              3.477158263845 eV    ::
         :: SCC energy               -21.721195246366 Eh    ::
         :: -> dispersion             -0.005962157306 Eh    ::
         :: repulsion energy           0.207928664891 Eh    ::

    * Orbital Energies and Occupations

         #    Occupation            Energy/Eh            Energy/eV
      -------------------------------------------------------------
         1        2.0000           -0.7471159             -20.3301
       ...           ...                  ...                  ...
         6        2.0000           -0.6193689             -16.8539
         7        2.0000           -0.6089651             -16.5708
         8        2.0000           -0.5863994             -15.9567
         9        2.0000           -0.5697872             -15.5047
        10        2.0000           -0.5465646             -14.8728
        11        2.0000           -0.5418830             -14.7454
        12        2.0000           -0.5280066             -14.3678
        13        2.0000           -0.5254784             -14.2990
        14        2.0000           -0.4927221             -13.4077
        15        2.0000           -0.4733492             -12.8805
        16        2.0000           -0.4628404             -12.5945
        17        2.0000           -0.4084410             -11.1142
        18        2.0000           -0.4037196             -10.9858 (HOMO)
        19                         -0.2759364              -7.5086 (LUMO)
        20                         -0.2072737              -5.6402
        21                         -0.1660501              -4.5185
        22                          0.0843754               2.2960
        23                          0.0968314               2.6349
        24                          0.1237188               3.3666
        25                          0.1300698               3.5394
        26                          0.2193476               5.9688
        27                          0.2387563               6.4969
        28                          0.4013759              10.9220
        29                          0.5884117              16.0115
        30                          0.6224416              16.9375
      -------------------------------------------------------------
                  HL-Gap            0.1277832 Eh            3.4772 eV

     #   Z        covCN         q      C6AA      Î±(0)
     1   6 C      2.761     0.099    25.782     8.315
     2   6 C      2.834    -0.124    31.133     9.144
     3   6 C      2.701     0.183    24.059     8.028
     4   8 O      1.786    -0.164    16.756     5.527
     5   8 O      1.739    -0.316    19.264     5.926
     6   8 O      0.856    -0.283    19.485     5.918
     7   1 H      0.805     0.323     0.657     1.273
     8   1 H      0.923     0.056     2.249     2.345
     9   1 H      0.925     0.066     2.126     2.280
    10   1 H      0.923     0.037     2.486     2.466
    11   1 H      0.926     0.054     2.273     2.358
    12   1 H      0.926     0.068     2.108     2.270

Wiberg/Mayer (AO) data.
largest (>0.10) Wiberg bond orders for each atom
          total WBO             WBO to atom ...

molecular dipole:
                 x           y           z       tot (Debye)
 q only:       -0.217       0.795      -0.515
   full:       -0.223       1.105      -0.720       3.400

           -------------------------------------------------
          | TOTAL ENERGY              -21.513250490494 Eh   |
          | GRADIENT NORM               0.000858855231 Eh/Î± |
          | HOMO-LUMO GAP               3.477158263845 eV   |
           -------------------------------------------------

 * finished run on 2020/12/23 at 21:40:14.561
