   * xtb version 6.2.3 (830e466) compiled by 'ehlert@majestix' on 2020-03-16
          program call               : xtb -c 0 -u 0 -a 1.0 --iterations 100 --opt normal --namespace product_25 /scratch/bell/zhao922/YARP/paper-example/potential_product/test/reaction_channel/pp_0/pp_24_0.xyz
          number of atoms            :                    12
          number of electrons        :                    36
          charge                     :                     0
          spin                       :                   0.0
          :  Hamiltonian                  GFN2-xTB          :
 * total energy  :   -21.6630389 Eh     change        0.1522324E-08 Eh
 * total energy  :   -21.6680349 Eh     change       -0.4996029E-02 Eh
 * total energy  :   -21.6693843 Eh     change       -0.1349429E-02 Eh
 * total energy  :   -21.6698476 Eh     change       -0.4632250E-03 Eh
 * total energy  :   -21.6700827 Eh     change       -0.2350953E-03 Eh
 * total energy  :   -21.6701975 Eh     change       -0.1147868E-03 Eh
 * total energy  :   -21.6702551 Eh     change       -0.5763974E-04 Eh
 * total energy  :   -21.6703223 Eh     change       -0.6718691E-04 Eh
 * total energy  :   -21.6704430 Eh     change       -0.1207110E-03 Eh
 * total energy  :   -21.6705152 Eh     change       -0.7217076E-04 Eh
 * total energy  :   -21.6705524 Eh     change       -0.3726950E-04 Eh
 * total energy  :   -21.6705618 Eh     change       -0.9379305E-05 Eh
 * total energy  :   -21.6705679 Eh     change       -0.6124904E-05 Eh
 * total energy  :   -21.6705702 Eh     change       -0.2234228E-05 Eh
   *** GEOMETRY OPTIMIZATION CONVERGED AFTER 14 ITERATIONS ***

 final structure:
================
12
 xtb: 6.2.3 (830e466)
C         1.18115153074994    0.78096265586690   -2.49018458142911
C         0.63056856778528    0.87341737151498   -1.05420198796595
C         1.61882326105963    1.59707838013421   -0.15960848134038
O         0.22926803318209    0.27781707409622   -3.38983770904182
O         1.67387394064103    2.92787602272877   -0.33906590964463
O         2.32410553991470    1.05151834403682    0.63581073165190
H         1.04711551721609    3.24332823156981   -1.00383241810245
H         2.09254473411297    0.16789395923957   -2.49038498476806
H         1.43696886829467    1.77511882939912   -2.87018626054711
H         0.00799562100886   -0.62782952116132   -3.14612399611714
H         0.47240298010352   -0.13031549964338   -0.65617444409385
H        -0.32582859406877    1.40274415221830   -1.07201995860138

          :  Hamiltonian                  GFN2-xTB          :
         :: total energy             -21.670570158448 Eh    ::
         :: gradient norm              0.000776846523 Eh/a0 ::
         :: HOMO-LUMO gap              4.906213054702 eV    ::
         :: SCC energy               -21.855802834334 Eh    ::
         :: -> dispersion             -0.005876888429 Eh    ::
         :: repulsion energy           0.185227503287 Eh    ::

    * Orbital Energies and Occupations

         #    Occupation            Energy/Eh            Energy/eV
      -------------------------------------------------------------
         1        2.0000           -0.7546751             -20.5358
       ...           ...                  ...                  ...
         6        2.0000           -0.6387461             -17.3812
         7        2.0000           -0.6008481             -16.3499
         8        2.0000           -0.5942649             -16.1708
         9        2.0000           -0.5769439             -15.6994
        10        2.0000           -0.5686239             -15.4730
        11        2.0000           -0.5443956             -14.8138
        12        2.0000           -0.5350493             -14.5594
        13        2.0000           -0.5139552             -13.9854
        14        2.0000           -0.5038909             -13.7116
        15        2.0000           -0.4862312             -13.2310
        16        2.0000           -0.4687825             -12.7562
        17        2.0000           -0.4416694             -12.0184
        18        2.0000           -0.4261569             -11.5963 (HOMO)
        19                         -0.2458569              -6.6901 (LUMO)
        20                          0.0253241               0.6891
        21                          0.0512255               1.3939
        22                          0.0758713               2.0646
        23                          0.1008135               2.7433
        24                          0.1136242               3.0919
        25                          0.1410531               3.8382
        26                          0.1555351               4.2323
        27                          0.2034354               5.5358
        28                          0.2384865               6.4895
        29                          0.3122437               8.4966
        30                          0.6435059              17.5107
      -------------------------------------------------------------
                  HL-Gap            0.1803000 Eh            4.9062 eV

     #   Z        covCN         q      C6AA      Î±(0)
     1   6 C      3.675     0.084    19.399     6.311
     2   6 C      3.799    -0.118    22.758     6.792
     3   6 C      2.689     0.355    20.967     7.494
     4   8 O      1.656    -0.432    21.472     6.255
     5   8 O      1.659    -0.369    20.262     6.077
     6   8 O      0.856    -0.358    20.868     6.125
     7   1 H      0.805     0.325     0.651     1.267
     8   1 H      0.923     0.034     2.529     2.487
     9   1 H      0.924     0.051     2.310     2.377
    10   1 H      0.805     0.295     0.736     1.347
    11   1 H      0.924     0.069     2.094     2.263
    12   1 H      0.924     0.064     2.158     2.297

Wiberg/Mayer (AO) data.
largest (>0.10) Wiberg bond orders for each atom
          total WBO             WBO to atom ...

molecular dipole:
                 x           y           z       tot (Debye)
 q only:       -0.852      -0.006      -0.719
   full:       -1.065      -0.094      -0.839       3.454

           -------------------------------------------------
          | TOTAL ENERGY              -21.670570158448 Eh   |
          | GRADIENT NORM               0.000776846523 Eh/Î± |
          | HOMO-LUMO GAP               4.906213054702 eV   |
           -------------------------------------------------

 * finished run on 2020/12/23 at 21:42:39.760
