   * xtb version 6.2.3 (830e466) compiled by 'ehlert@majestix' on 2020-03-16
          program call               : xtb -c 0 -u 0 -a 1.0 --iterations 100 --opt normal --namespace product_14 /scratch/bell/zhao922/YARP/paper-example/potential_product/test/reaction_channel/pp_0/pp_18_0.xyz
          number of atoms            :                    12
          number of electrons        :                    36
          charge                     :                     0
          spin                       :                   0.0
          :  Hamiltonian                  GFN2-xTB          :
 * total energy  :   -21.5707107 Eh     change       -0.9749535E-09 Eh
 * total energy  :   -21.5842366 Eh     change       -0.1352591E-01 Eh
 * total energy  :   -21.5874970 Eh     change       -0.3260451E-02 Eh
 * total energy  :   -21.5877152 Eh     change       -0.2181795E-03 Eh
 * total energy  :   -21.5881979 Eh     change       -0.4826863E-03 Eh
 * total energy  :   -21.5883840 Eh     change       -0.1860906E-03 Eh
 * total energy  :   -21.5887226 Eh     change       -0.3385864E-03 Eh
 * total energy  :   -21.5889373 Eh     change       -0.2146899E-03 Eh
 * total energy  :   -21.5892145 Eh     change       -0.2772254E-03 Eh
 * total energy  :   -21.5896272 Eh     change       -0.4127209E-03 Eh
 * total energy  :   -21.5909144 Eh     change       -0.1390805E-04 Eh
 * total energy  :   -21.5909313 Eh     change       -0.1688524E-04 Eh
 * total energy  :   -21.5909508 Eh     change       -0.1952908E-04 Eh
 * total energy  :   -21.5909633 Eh     change       -0.1244063E-04 Eh
 * total energy  :   -21.5909801 Eh     change       -0.1686917E-04 Eh
 * total energy  :   -21.5909986 Eh     change       -0.1849396E-04 Eh
 * total energy  :   -21.5909923 Eh     change        0.6380439E-05 Eh
 * total energy  :   -21.5910166 Eh     change       -0.2436295E-04 Eh
 * total energy  :   -21.5910207 Eh     change       -0.4048005E-05 Eh
   *** GEOMETRY OPTIMIZATION CONVERGED AFTER 35 ITERATIONS ***

 final structure:
================
12
 xtb: 6.2.3 (830e466)
C         0.90008558075609    1.45062663472691   -2.37170404633271
C        -0.41785232016706    2.20438574741372   -2.29324782789814
C         2.62156747332631   -0.32100298835273    0.12989472001626
O         1.13899164369991    0.95086157967973   -1.06848420560157
O         2.37029469148640    0.23703774335142   -1.05374110698524
O         3.60666527203862   -0.95640459242202    0.32785448171055
H        -0.34027226527849    3.01915202218562   -1.57883933283543
H         1.71886098700500    2.11595348258343   -2.66997335380052
H         0.83771580548774    0.61828560056849   -3.08274400425469
H         1.82556757624458   -0.12212487542743    0.87137173671090
H        -0.66056285610242    2.60749671045057   -3.27193348043975
H        -1.21206158849661    1.53532293524202   -1.97425358028989

          :  Hamiltonian                  GFN2-xTB          :
         :: total energy             -21.591020664875 Eh    ::
         :: gradient norm              0.000692836342 Eh/a0 ::
         :: HOMO-LUMO gap              5.026841255797 eV    ::
         :: SCC energy               -21.768715150657 Eh    ::
         :: -> dispersion             -0.005168532428 Eh    ::
         :: repulsion energy           0.177698670288 Eh    ::

    * Orbital Energies and Occupations

         #    Occupation            Energy/Eh            Energy/eV
      -------------------------------------------------------------
         1        2.0000           -0.7773421             -21.1526
       ...           ...                  ...                  ...
         6        2.0000           -0.6303802             -17.1535
         7        2.0000           -0.6262082             -17.0400
         8        2.0000           -0.6140667             -16.7096
         9        2.0000           -0.5839372             -15.8897
        10        2.0000           -0.5677819             -15.4501
        11        2.0000           -0.5473551             -14.8943
        12        2.0000           -0.5418753             -14.7452
        13        2.0000           -0.5185432             -14.1103
        14        2.0000           -0.5001174             -13.6089
        15        2.0000           -0.4891483             -13.3104
        16        2.0000           -0.4804440             -13.0735
        17        2.0000           -0.4407307             -11.9929
        18        2.0000           -0.4402545             -11.9799 (HOMO)
        19                         -0.2555215              -6.9531 (LUMO)
        20                         -0.1933121              -5.2603
        21                          0.0384680               1.0468
        22                          0.0912065               2.4819
        23                          0.1289228               3.5082
        24                          0.1320610               3.5936
        25                          0.1408306               3.8322
        26                          0.1583398               4.3086
        27                          0.2252192               6.1285
        28                          0.2463381               6.7032
        29                          0.2514640               6.8427
        30                          0.6330225              17.2254
      -------------------------------------------------------------
                  HL-Gap            0.1847330 Eh            5.0268 eV

     #   Z        covCN         q      C6AA      Î±(0)
     1   6 C      3.675     0.084    19.408     6.313
     2   6 C      3.752    -0.118    22.817     6.812
     3   6 C      2.636     0.343    21.183     7.529
     4   8 O      1.784    -0.185    17.087     5.582
     5   8 O      1.786    -0.139    16.386     5.466
     6   8 O      0.856    -0.327    20.272     6.037
     7   1 H      0.925     0.066     2.129     2.282
     8   1 H      0.924     0.054     2.269     2.356
     9   1 H      0.924     0.053     2.281     2.362
    10   1 H      0.922     0.039     2.460     2.453
    11   1 H      0.925     0.064     2.156     2.296
    12   1 H      0.925     0.066     2.130     2.282

Wiberg/Mayer (AO) data.
largest (>0.10) Wiberg bond orders for each atom
          total WBO             WBO to atom ...

molecular dipole:
                 x           y           z       tot (Debye)
 q only:       -1.193       0.878      -0.688
   full:       -1.294       0.937      -0.705       4.438

           -------------------------------------------------
          | TOTAL ENERGY              -21.591020664875 Eh   |
          | GRADIENT NORM               0.000692836342 Eh/Î± |
          | HOMO-LUMO GAP               5.026841255797 eV   |
           -------------------------------------------------

 * finished run on 2020/12/23 at 21:41:32.459
