   * xtb version 6.2.3 (830e466) compiled by 'ehlert@majestix' on 2020-03-16
          program call               : xtb -c 0 -u 0 -a 1.0 --iterations 100 --opt normal --namespace product_38 /scratch/bell/zhao922/YARP/paper-example/potential_product/test/reaction_channel/pp_0/pp_9_3.xyz
          number of atoms            :                    12
          number of electrons        :                    36
          charge                     :                     0
          spin                       :                   0.0
          :  Hamiltonian                  GFN2-xTB          :
 * total energy  :   -21.5524249 Eh     change       -0.3783168E-08 Eh
 * total energy  :   -21.5617276 Eh     change       -0.9302661E-02 Eh
 * total energy  :   -21.5635892 Eh     change       -0.1861641E-02 Eh
 * total energy  :   -21.5638982 Eh     change       -0.3089475E-03 Eh
 * total energy  :   -21.5641401 Eh     change       -0.2419035E-03 Eh
 * total energy  :   -21.5644601 Eh     change       -0.3200737E-03 Eh
 * total energy  :   -21.5648348 Eh     change       -0.3746851E-03 Eh
 * total energy  :   -21.5648064 Eh     change        0.2839654E-04 Eh
 * total energy  :   -21.5652161 Eh     change       -0.4096499E-03 Eh
 * total energy  :   -21.5653678 Eh     change       -0.1517403E-03 Eh
 * total energy  :   -21.5663296 Eh     change       -0.1104983E-04 Eh
 * total energy  :   -21.5663362 Eh     change       -0.6579757E-05 Eh
 * total energy  :   -21.5663565 Eh     change       -0.2030721E-04 Eh
 * total energy  :   -21.5663649 Eh     change       -0.8354564E-05 Eh
 * total energy  :   -21.5663732 Eh     change       -0.8364554E-05 Eh
 * total energy  :   -21.5663852 Eh     change       -0.1198042E-04 Eh
 * total energy  :   -21.5664030 Eh     change       -0.1776456E-04 Eh
 * total energy  :   -21.5664131 Eh     change       -0.1012067E-04 Eh
 * total energy  :   -21.5664175 Eh     change       -0.4377836E-05 Eh
   *** GEOMETRY OPTIMIZATION CONVERGED AFTER 44 ITERATIONS ***

 final structure:
================
12
 xtb: 6.2.3 (830e466)
C         1.30341013392109    1.09627112176137   -1.26911146220828
C        -0.19617558010939    0.79216713139740   -1.21480894579182
C         2.10837014763481   -0.15869049848514   -1.52911663344208
O         1.64892912533318    2.00719013463151   -2.28751001561799
O         1.19725205505511    3.31144394696841   -1.91855340069849
O         1.97320650474485   -1.18444357503166   -0.92958529021786
H         1.53172369951756    3.85307557569571   -2.64512902064273
H         1.62545527648216    1.50460925720880   -0.29702812837597
H        -0.53576161806413    0.44176996713717   -2.18644133398122
H         2.85234481913529   -0.03706370655669   -2.33658452825046
H        -0.37547820129993    0.02125274982140   -0.47175850213871
H        -0.74426636235056    1.69202789545170   -0.95017273863441

          :  Hamiltonian                  GFN2-xTB          :
         :: total energy             -21.566417485223 Eh    ::
         :: gradient norm              0.000967352400 Eh/a0 ::
         :: HOMO-LUMO gap              3.681076620673 eV    ::
         :: SCC energy               -21.741590452701 Eh    ::
         :: -> dispersion             -0.005936193840 Eh    ::
         :: repulsion energy           0.175165366351 Eh    ::

    * Orbital Energies and Occupations

         #    Occupation            Energy/Eh            Energy/eV
      -------------------------------------------------------------
         1        2.0000           -0.7383720             -20.0921
       ...           ...                  ...                  ...
         6        2.0000           -0.6177755             -16.8105
         7        2.0000           -0.6098354             -16.5945
         8        2.0000           -0.5985820             -16.2882
         9        2.0000           -0.5731845             -15.5971
        10        2.0000           -0.5547584             -15.0957
        11        2.0000           -0.5491337             -14.9427
        12        2.0000           -0.5324016             -14.4874
        13        2.0000           -0.5177998             -14.0900
        14        2.0000           -0.4960015             -13.4969
        15        2.0000           -0.4800295             -13.0623
        16        2.0000           -0.4719862             -12.8434
        17        2.0000           -0.4253879             -11.5754
        18        2.0000           -0.4167957             -11.3416 (HOMO)
        19                         -0.2815186              -7.6605 (LUMO)
        20                         -0.1677526              -4.5648
        21                          0.0429607               1.1690
        22                          0.0743354               2.0228
        23                          0.1193488               3.2476
        24                          0.1216311               3.3098
        25                          0.1522720               4.1435
        26                          0.1657380               4.5100
        27                          0.1927450               5.2449
        28                          0.2460974               6.6967
        29                          0.2484817               6.7615
        30                          0.6085175              16.5586
      -------------------------------------------------------------
                  HL-Gap            0.1352771 Eh            3.6811 eV

     #   Z        covCN         q      C6AA      Î±(0)
     1   6 C      3.727     0.105    18.946     6.215
     2   6 C      3.753    -0.115    22.756     6.803
     3   6 C      2.759     0.208    23.588     7.953
     4   8 O      1.778    -0.219    17.620     5.668
     5   8 O      1.733    -0.318    19.310     5.933
     6   8 O      0.856    -0.297    19.727     5.955
     7   1 H      0.805     0.324     0.653     1.269
     8   1 H      0.923     0.076     2.017     2.221
     9   1 H      0.925     0.057     2.231     2.336
    10   1 H      0.922     0.046     2.376     2.411
    11   1 H      0.925     0.065     2.146     2.291
    12   1 H      0.925     0.068     2.107     2.270

Wiberg/Mayer (AO) data.
largest (>0.10) Wiberg bond orders for each atom
          total WBO             WBO to atom ...

molecular dipole:
                 x           y           z       tot (Debye)
 q only:       -0.161       0.667      -0.247
   full:       -0.028       0.905      -0.438       2.556

           -------------------------------------------------
          | TOTAL ENERGY              -21.566417485223 Eh   |
          | GRADIENT NORM               0.000967352400 Eh/Î± |
          | HOMO-LUMO GAP               3.681076620673 eV   |
           -------------------------------------------------

 * finished run on 2020/12/23 at 21:44:01.969
