   * xtb version 6.2.3 (830e466) compiled by 'ehlert@majestix' on 2020-03-16
          program call               : xtb -c 0 -u 0 -a 1.0 --iterations 100 --opt normal --namespace product_16 /scratch/bell/zhao922/YARP/paper-example/potential_product/test/reaction_channel/pp_0/pp_19_1.xyz
          number of atoms            :                    12
          number of electrons        :                    36
          charge                     :                     0
          spin                       :                   0.0
          :  Hamiltonian                  GFN2-xTB          :
 * total energy  :   -21.5408817 Eh     change        0.1038294E-07 Eh
 * total energy  :   -21.5542535 Eh     change       -0.1337182E-01 Eh
 * total energy  :   -21.5579797 Eh     change       -0.3726175E-02 Eh
 * total energy  :   -21.5584695 Eh     change       -0.4898626E-03 Eh
 * total energy  :   -21.5590369 Eh     change       -0.5673751E-03 Eh
 * total energy  :   -21.5594353 Eh     change       -0.3984476E-03 Eh
 * total energy  :   -21.5600008 Eh     change       -0.5654901E-03 Eh
 * total energy  :   -21.5604456 Eh     change       -0.4447250E-03 Eh
 * total energy  :   -21.5610029 Eh     change       -0.5572896E-03 Eh
 * total energy  :   -21.5608867 Eh     change        0.1161935E-03 Eh
 * total energy  :   -21.5646612 Eh     change       -0.5401399E-04 Eh
 * total energy  :   -21.5647357 Eh     change       -0.7455230E-04 Eh
 * total energy  :   -21.5647849 Eh     change       -0.4914434E-04 Eh
 * total energy  :   -21.5648325 Eh     change       -0.4763532E-04 Eh
 * total energy  :   -21.5648280 Eh     change        0.4446938E-05 Eh
 * total energy  :   -21.5648732 Eh     change       -0.4517693E-04 Eh
 * total energy  :   -21.5648818 Eh     change       -0.8608804E-05 Eh
 * total energy  :   -21.5648847 Eh     change       -0.2841366E-05 Eh
 * total energy  :   -21.5648860 Eh     change       -0.1330706E-05 Eh
   *** GEOMETRY OPTIMIZATION CONVERGED AFTER 32 ITERATIONS ***

 final structure:
================
12
 xtb: 6.2.3 (830e466)
C         1.30700600849450    1.29889128600766   -2.61171637588274
C         0.64149889536892    0.11699610360750   -1.95202597639557
C         0.73460218367352   -0.18967020414225   -0.66056325760450
O         0.76996739765594    2.56618563733699   -2.27814478096350
O         1.29303806773479    2.99648863368462   -1.01510173170415
O         1.38573304356464    0.49382912708279    0.29460755157995
H         0.71555220071906    3.73851941452757   -0.79633343039591
H         2.38755866272196    1.31204616342308   -2.40993999777937
H         1.15436800224865    1.25508145775784   -3.69185277858859
H         0.26142124954964   -1.07667012408171   -0.26119731771395
H         0.05261147749912   -0.51928173342930   -2.59004583450605
H         1.68564281076918    1.34718423822482   -0.06348607004579

          :  Hamiltonian                  GFN2-xTB          :
         :: total energy             -21.564886000799 Eh    ::
         :: gradient norm              0.000345813733 Eh/a0 ::
         :: HOMO-LUMO gap              4.990134947997 eV    ::
         :: SCC energy               -21.749101267632 Eh    ::
         :: -> dispersion             -0.006214152309 Eh    ::
         :: repulsion energy           0.184207304208 Eh    ::

    * Orbital Energies and Occupations

         #    Occupation            Energy/Eh            Energy/eV
      -------------------------------------------------------------
         1        2.0000           -0.7334914             -19.9593
       ...           ...                  ...                  ...
         6        2.0000           -0.6210697             -16.9002
         7        2.0000           -0.6052943             -16.4709
         8        2.0000           -0.5799762             -15.7820
         9        2.0000           -0.5679751             -15.4554
        10        2.0000           -0.5482352             -14.9182
        11        2.0000           -0.5275339             -14.3549
        12        2.0000           -0.5144026             -13.9976
        13        2.0000           -0.5132608             -13.9665
        14        2.0000           -0.4901494             -13.3376
        15        2.0000           -0.4650270             -12.6540
        16        2.0000           -0.4529970             -12.3267
        17        2.0000           -0.4172185             -11.3531
        18        2.0000           -0.3844160             -10.4605 (HOMO)
        19                         -0.2010319              -5.4704 (LUMO)
        20                         -0.1659776              -4.5165
        21                          0.0538311               1.4648
        22                          0.0752487               2.0476
        23                          0.1022315               2.7819
        24                          0.1266213               3.4455
        25                          0.1634691               4.4482
        26                          0.1801987               4.9035
        27                          0.2127410               5.7890
        28                          0.2598270               7.0703
        29                          0.4007903              10.9061
        30                          0.6161020              16.7650
      -------------------------------------------------------------
                  HL-Gap            0.1833841 Eh            4.9901 eV

     #   Z        covCN         q      C6AA      Î±(0)
     1   6 C      3.678     0.085    19.370     6.305
     2   6 C      2.884    -0.112    30.835     9.104
     3   6 C      2.763     0.107    25.624     8.290
     4   8 O      1.772    -0.216    17.577     5.661
     5   8 O      1.729    -0.336    19.623     5.981
     6   8 O      1.658    -0.381    20.486     6.110
     7   1 H      0.805     0.324     0.654     1.270
     8   1 H      0.923     0.050     2.319     2.382
     9   1 H      0.924     0.066     2.133     2.284
    10   1 H      0.925     0.048     2.346     2.395
    11   1 H      0.926     0.038     2.479     2.462
    12   1 H      0.804     0.328     0.643     1.260

Wiberg/Mayer (AO) data.
largest (>0.10) Wiberg bond orders for each atom
          total WBO             WBO to atom ...

molecular dipole:
                 x           y           z       tot (Debye)
 q only:       -0.031       0.109      -0.200
   full:       -0.098       0.327      -0.330       1.206

           -------------------------------------------------
          | TOTAL ENERGY              -21.564886000799 Eh   |
          | GRADIENT NORM               0.000345813733 Eh/Î± |
          | HOMO-LUMO GAP               4.990134947997 eV   |
           -------------------------------------------------

 * finished run on 2020/12/23 at 21:41:45.066
