   * xtb version 6.2.3 (830e466) compiled by 'ehlert@majestix' on 2020-03-16
          program call               : xtb -c 0 -u 0 -a 1.0 --iterations 100 --opt normal --namespace product_31 /scratch/bell/zhao922/YARP/paper-example/potential_product/test/reaction_channel/pp_0/pp_6_0.xyz
          number of atoms            :                    12
          number of electrons        :                    36
          charge                     :                     0
          spin                       :                   0.0
          :  Hamiltonian                  GFN2-xTB          :
 * total energy  :   -21.5428920 Eh     change        0.2819502E-07 Eh
 * total energy  :   -21.5541161 Eh     change       -0.1122411E-01 Eh
 * total energy  :   -21.5563921 Eh     change       -0.2275999E-02 Eh
 * total energy  :   -21.5568372 Eh     change       -0.4450303E-03 Eh
 * total energy  :   -21.5571130 Eh     change       -0.2757999E-03 Eh
 * total energy  :   -21.5575277 Eh     change       -0.4147155E-03 Eh
 * total energy  :   -21.5578417 Eh     change       -0.3139774E-03 Eh
 * total energy  :   -21.5582588 Eh     change       -0.4171798E-03 Eh
 * total energy  :   -21.5586600 Eh     change       -0.4011605E-03 Eh
 * total energy  :   -21.5586345 Eh     change        0.2546243E-04 Eh
 * total energy  :   -21.5615705 Eh     change       -0.7403700E-04 Eh
 * total energy  :   -21.5616874 Eh     change       -0.1169277E-03 Eh
 * total energy  :   -21.5618585 Eh     change       -0.1711001E-03 Eh
 * total energy  :   -21.5619167 Eh     change       -0.5824871E-04 Eh
 * total energy  :   -21.5619545 Eh     change       -0.3778530E-04 Eh
 * total energy  :   -21.5619695 Eh     change       -0.1493475E-04 Eh
 * total energy  :   -21.5619726 Eh     change       -0.3174786E-05 Eh
 * total energy  :   -21.5619831 Eh     change       -0.1047150E-04 Eh
 * total energy  :   -21.5619861 Eh     change       -0.3009679E-05 Eh
   *** GEOMETRY OPTIMIZATION CONVERGED AFTER 29 ITERATIONS ***

 final structure:
================
12
 xtb: 6.2.3 (830e466)
C         1.85589548270201    2.45244703176869   -2.69684614319715
C         0.01602055201033    0.57123562578549   -0.64237117347879
C         1.14698398823608   -0.43385581742937   -0.66559939673158
O         0.56769372651710    1.95901745433596   -2.42141174475711
O         0.35725583717178    1.87702936375192   -1.01250722757798
O         2.28099998613841   -0.21906319789879   -0.97254264164367
H         1.98620912537416    3.45970893841546   -2.29284494667522
H         2.62990467738421    1.78803245802510   -2.30386886120680
H         1.89768307246798    2.47850274135070   -3.78440295519216
H         0.80383371438566   -1.44349806852278   -0.36123787193165
H        -0.80272888110614    0.18594774978971   -1.26794147454263
H        -0.35075128128143    0.66410572062793    0.38578443693479

          :  Hamiltonian                  GFN2-xTB          :
         :: total energy             -21.561986097977 Eh    ::
         :: gradient norm              0.000699087226 Eh/a0 ::
         :: HOMO-LUMO gap              3.442159387565 eV    ::
         :: SCC energy               -21.730487098039 Eh    ::
         :: -> dispersion             -0.005871114874 Eh    ::
         :: repulsion energy           0.168494116057 Eh    ::

    * Orbital Energies and Occupations

         #    Occupation            Energy/Eh            Energy/eV
      -------------------------------------------------------------
         1        2.0000           -0.7406443             -20.1540
       ...           ...                  ...                  ...
         6        2.0000           -0.6290486             -17.1173
         7        2.0000           -0.6028060             -16.4032
         8        2.0000           -0.5878280             -15.9956
         9        2.0000           -0.5793671             -15.7654
        10        2.0000           -0.5591545             -15.2154
        11        2.0000           -0.5562065             -15.1351
        12        2.0000           -0.5319764             -14.4758
        13        2.0000           -0.5173909             -14.0789
        14        2.0000           -0.5081392             -13.8272
        15        2.0000           -0.4768729             -12.9764
        16        2.0000           -0.4631166             -12.6020
        17        2.0000           -0.4249789             -11.5643
        18        2.0000           -0.4078187             -11.0973 (HOMO)
        19                         -0.2813217              -7.6552 (LUMO)
        20                         -0.1527850              -4.1575
        21                          0.0384955               1.0475
        22                          0.0823824               2.2417
        23                          0.1013729               2.7585
        24                          0.1282856               3.4908
        25                          0.1471513               4.0042
        26                          0.1826280               4.9696
        27                          0.1978647               5.3842
        28                          0.2123024               5.7770
        29                          0.2227434               6.0612
        30                          0.6165502              16.7772
      -------------------------------------------------------------
                  HL-Gap            0.1264970 Eh            3.4422 eV

     #   Z        covCN         q      C6AA      Î±(0)
     1   6 C      3.625     0.032    20.456     6.517
     2   6 C      3.677     0.057    19.829     6.380
     3   6 C      2.754     0.209    23.561     7.948
     4   8 O      1.779    -0.202    17.350     5.625
     5   8 O      1.780    -0.194    17.228     5.605
     6   8 O      0.856    -0.291    19.618     5.938
     7   1 H      0.924     0.053     2.287     2.365
     8   1 H      0.924     0.069     2.099     2.266
     9   1 H      0.925     0.072     2.066     2.248
    10   1 H      0.922     0.025     2.665     2.553
    11   1 H      0.923     0.077     2.007     2.215
    12   1 H      0.924     0.093     1.851     2.128

Wiberg/Mayer (AO) data.
largest (>0.10) Wiberg bond orders for each atom
          total WBO             WBO to atom ...

molecular dipole:
                 x           y           z       tot (Debye)
 q only:       -0.378      -0.287       0.158
   full:       -0.528      -0.437       0.246       1.850

           -------------------------------------------------
          | TOTAL ENERGY              -21.561986097977 Eh   |
          | GRADIENT NORM               0.000699087226 Eh/Î± |
          | HOMO-LUMO GAP               3.442159387565 eV   |
           -------------------------------------------------

 * finished run on 2020/12/23 at 21:43:16.568
