   * xtb version 6.2.3 (830e466) compiled by 'ehlert@majestix' on 2020-03-16
          program call               : xtb -c 0 -u 0 -a 1.0 --iterations 100 --opt normal --namespace product_11 /scratch/bell/zhao922/YARP/paper-example/potential_product/test/reaction_channel/pp_0/pp_15_1.xyz
          number of atoms            :                    12
          number of electrons        :                    36
          charge                     :                     0
          spin                       :                   0.0
          :  Hamiltonian                  GFN2-xTB          :
 * total energy  :   -21.6370015 Eh     change        0.3238000E-07 Eh
 * total energy  :   -21.6415829 Eh     change       -0.4581434E-02 Eh
 * total energy  :   -21.6426972 Eh     change       -0.1114306E-02 Eh
 * total energy  :   -21.6435390 Eh     change       -0.8417987E-03 Eh
 * total energy  :   -21.6440126 Eh     change       -0.4736291E-03 Eh
 * total energy  :   -21.6446803 Eh     change       -0.6676369E-03 Eh
 * total energy  :   -21.6450639 Eh     change       -0.3836678E-03 Eh
 * total energy  :   -21.6455781 Eh     change       -0.5141893E-03 Eh
 * total energy  :   -21.6460981 Eh     change       -0.5199325E-03 Eh
 * total energy  :   -21.6459209 Eh     change        0.1771486E-03 Eh
 * total energy  :   -21.6495458 Eh     change       -0.2752346E-03 Eh
 * total energy  :   -21.6499321 Eh     change       -0.3862732E-03 Eh
 * total energy  :   -21.6500849 Eh     change       -0.1527655E-03 Eh
 * total energy  :   -21.6501939 Eh     change       -0.1090143E-03 Eh
 * total energy  :   -21.6502463 Eh     change       -0.5238524E-04 Eh
 * total energy  :   -21.6502781 Eh     change       -0.3182013E-04 Eh
 * total energy  :   -21.6503069 Eh     change       -0.2885569E-04 Eh
 * total energy  :   -21.6503189 Eh     change       -0.1201087E-04 Eh
 * total energy  :   -21.6503232 Eh     change       -0.4206376E-05 Eh
   *** GEOMETRY OPTIMIZATION CONVERGED AFTER 30 ITERATIONS ***

 final structure:
================
12
 xtb: 6.2.3 (830e466)
C         1.31600725360003    1.94823014273899   -1.59797957300627
C         0.54138066540167    0.81682066066681   -0.88764551892025
C         1.13204035136614   -0.53319677029296   -1.14052239518577
O         1.36630012290980    1.76048826047567   -2.97867969433903
O         0.68636359982727    3.16583250485461   -1.35099276718016
O         1.94781754482598   -0.78475782269554   -1.98704902679094
H         0.52278877588796    3.57418147676212   -2.20994737441663
H         2.34163164835314    1.98605631077074   -1.17767701631174
H         1.78262414594494    0.90300831487035   -3.15293418603894
H         0.74093096072832   -1.32640561118316   -0.47588094074030
H        -0.48793274901569    0.80894439761144   -1.25907227317397
H         0.49904768017045    1.02038813542094    0.18259076610403

          :  Hamiltonian                  GFN2-xTB          :
         :: total energy             -21.650323138469 Eh    ::
         :: gradient norm              0.000733705255 Eh/a0 ::
         :: HOMO-LUMO gap              3.372077088397 eV    ::
         :: SCC energy               -21.828282522301 Eh    ::
         :: -> dispersion             -0.006087808226 Eh    ::
         :: repulsion energy           0.177955062522 Eh    ::

    * Orbital Energies and Occupations

         #    Occupation            Energy/Eh            Energy/eV
      -------------------------------------------------------------
         1        2.0000           -0.7430183             -20.2186
       ...           ...                  ...                  ...
         6        2.0000           -0.6194196             -16.8553
         7        2.0000           -0.5977907             -16.2667
         8        2.0000           -0.5892209             -16.0335
         9        2.0000           -0.5712526             -15.5446
        10        2.0000           -0.5630050             -15.3201
        11        2.0000           -0.5553280             -15.1112
        12        2.0000           -0.5254848             -14.2992
        13        2.0000           -0.5054122             -13.7530
        14        2.0000           -0.5039235             -13.7125
        15        2.0000           -0.4852898             -13.2054
        16        2.0000           -0.4604934             -12.5307
        17        2.0000           -0.4309444             -11.7266
        18        2.0000           -0.4098954             -11.1538 (HOMO)
        19                         -0.2859738              -7.7817 (LUMO)
        20                          0.0287082               0.7812
        21                          0.0660690               1.7978
        22                          0.0703502               1.9143
        23                          0.1146104               3.1187
        24                          0.1364017               3.7117
        25                          0.1424547               3.8764
        26                          0.1725651               4.6957
        27                          0.2025472               5.5116
        28                          0.2438798               6.6363
        29                          0.2640599               7.1854
        30                          0.5842275              15.8976
      -------------------------------------------------------------
                  HL-Gap            0.1239216 Eh            3.3721 eV

     #   Z        covCN         q      C6AA      Î±(0)
     1   6 C      3.600     0.259    17.107     5.983
     2   6 C      3.800    -0.112    22.641     6.775
     3   6 C      2.757     0.215    23.452     7.930
     4   8 O      1.656    -0.462    22.081     6.343
     5   8 O      1.657    -0.445    21.737     6.294
     6   8 O      0.856    -0.330    20.323     6.044
     7   1 H      0.805     0.324     0.652     1.268
     8   1 H      0.922     0.014     2.819     2.626
     9   1 H      0.804     0.323     0.656     1.272
    10   1 H      0.922     0.032     2.559     2.502
    11   1 H      0.924     0.098     1.803     2.100
    12   1 H      0.924     0.082     1.959     2.189

Wiberg/Mayer (AO) data.
largest (>0.10) Wiberg bond orders for each atom
          total WBO             WBO to atom ...

molecular dipole:
                 x           y           z       tot (Debye)
 q only:       -0.488      -0.119       0.368
   full:       -0.510      -0.330       0.444       1.914

           -------------------------------------------------
          | TOTAL ENERGY              -21.650323138469 Eh   |
          | GRADIENT NORM               0.000733705255 Eh/Î± |
          | HOMO-LUMO GAP               3.372077088397 eV   |
           -------------------------------------------------

 * finished run on 2020/12/23 at 21:41:14.466
