   * xtb version 6.2.3 (830e466) compiled by 'ehlert@majestix' on 2020-03-16
          program call               : xtb -c 0 -u 0 -a 1.0 --iterations 100 --opt normal --namespace product_23 /scratch/bell/zhao922/YARP/paper-example/potential_product/test/reaction_channel/pp_0/pp_22_1.xyz
          number of atoms            :                    12
          number of electrons        :                    36
          charge                     :                     0
          spin                       :                   0.0
          :  Hamiltonian                  GFN2-xTB          :
 * total energy  :   -21.5899348 Eh     change        0.1073164E-07 Eh
 * total energy  :   -21.6009646 Eh     change       -0.1102985E-01 Eh
 * total energy  :   -21.6036530 Eh     change       -0.2688409E-02 Eh
 * total energy  :   -21.6040754 Eh     change       -0.4223145E-03 Eh
 * total energy  :   -21.6042457 Eh     change       -0.1703094E-03 Eh
 * total energy  :   -21.6043304 Eh     change       -0.8477227E-04 Eh
 * total energy  :   -21.6043582 Eh     change       -0.2773496E-04 Eh
 * total energy  :   -21.6043664 Eh     change       -0.8176631E-05 Eh
 * total energy  :   -21.6043716 Eh     change       -0.5277388E-05 Eh
 * total energy  :   -21.6043748 Eh     change       -0.3137630E-05 Eh
   *** GEOMETRY OPTIMIZATION CONVERGED AFTER 10 ITERATIONS ***

 final structure:
================
12
 xtb: 6.2.3 (830e466)
C         0.65888224951966    1.28576476377540   -2.77527872610337
C         0.52058381088835    0.32979585660476   -1.59142942587380
C         1.22718166902702    1.17830541052400   -0.53192346765404
O         0.51335794286236    2.57359717158620   -2.22290165032150
O         0.92562193467760    2.50494120982128   -0.84739136805777
O         2.59693707830871    0.91550609994844   -0.59150474866854
H         3.07345596527787    1.62113994336566   -0.13863478371165
H         1.64669001935049    1.17476370619356   -3.24166072634819
H        -0.12717659587370    1.18037499074793   -3.52270765113233
H         0.84655256594359    1.01721150479046    0.48906616393132
H         1.02909895111431   -0.61681816723609   -1.74036268912022
H        -0.52220559109627    0.17500750987843   -1.32107092693990

          :  Hamiltonian                  GFN2-xTB          :
         :: total energy             -21.604374768583 Eh    ::
         :: gradient norm              0.000823064329 Eh/a0 ::
         :: HOMO-LUMO gap              6.608188526868 eV    ::
         :: SCC energy               -21.754127795007 Eh    ::
         :: -> dispersion             -0.006230836361 Eh    ::
         :: repulsion energy           0.149748631802 Eh    ::

    * Orbital Energies and Occupations

         #    Occupation            Energy/Eh            Energy/eV
      -------------------------------------------------------------
         1        2.0000           -0.7400838             -20.1387
       ...           ...                  ...                  ...
         6        2.0000           -0.6319352             -17.1958
         7        2.0000           -0.6080716             -16.5465
         8        2.0000           -0.5948544             -16.1868
         9        2.0000           -0.5668627             -15.4251
        10        2.0000           -0.5566781             -15.1480
        11        2.0000           -0.5499961             -14.9662
        12        2.0000           -0.5292938             -14.4028
        13        2.0000           -0.5103411             -13.8871
        14        2.0000           -0.4901126             -13.3366
        15        2.0000           -0.4852034             -13.2031
        16        2.0000           -0.4707411             -12.8095
        17        2.0000           -0.4454245             -12.1206
        18        2.0000           -0.4100319             -11.1575 (HOMO)
        19                         -0.1671854              -4.5493 (LUMO)
        20                          0.0156100               0.4248
        21                          0.0479027               1.3035
        22                          0.0666720               1.8142
        23                          0.0924628               2.5160
        24                          0.1251434               3.4053
        25                          0.1283883               3.4936
        26                          0.1448060               3.9404
        27                          0.1725547               4.6955
        28                          0.2169729               5.9041
        29                          0.2272305               6.1833
        30                          0.2875085               7.8235
      -------------------------------------------------------------
                  HL-Gap            0.2428465 Eh            6.6082 eV

     #   Z        covCN         q      C6AA      Î±(0)
     1   6 C      3.722     0.083    19.300     6.274
     2   6 C      3.804    -0.071    21.864     6.657
     3   6 C      3.649     0.260    16.889     5.904
     4   8 O      1.774    -0.194    17.229     5.605
     5   8 O      1.776    -0.229    17.787     5.695
     6   8 O      1.657    -0.445    21.732     6.293
     7   1 H      0.805     0.312     0.687     1.301
     8   1 H      0.923     0.053     2.279     2.361
     9   1 H      0.925     0.067     2.120     2.277
    10   1 H      0.923     0.033     2.548     2.496
    11   1 H      0.925     0.072     2.064     2.247
    12   1 H      0.925     0.059     2.208     2.324

Wiberg/Mayer (AO) data.
largest (>0.10) Wiberg bond orders for each atom
          total WBO             WBO to atom ...

molecular dipole:
                 x           y           z       tot (Debye)
 q only:       -0.040      -0.840      -0.012
   full:       -0.024      -0.845       0.123       2.172

           -------------------------------------------------
          | TOTAL ENERGY              -21.604374768583 Eh   |
          | GRADIENT NORM               0.000823064329 Eh/Î± |
          | HOMO-LUMO GAP               6.608188526868 eV   |
           -------------------------------------------------

 * finished run on 2020/12/23 at 21:42:30.865
