   * xtb version 6.2.3 (830e466) compiled by 'ehlert@majestix' on 2020-03-16
          program call               : xtb -c 0 -u 0 -a 1.0 --iterations 100 --opt normal --namespace product_35 /scratch/bell/zhao922/YARP/paper-example/potential_product/test/reaction_channel/pp_0/pp_9_0.xyz
          number of atoms            :                    12
          number of electrons        :                    36
          charge                     :                     0
          spin                       :                   0.0
          :  Hamiltonian                  GFN2-xTB          :
 * total energy  :   -21.5502437 Eh     change       -0.5685028E-08 Eh
 * total energy  :   -21.5600791 Eh     change       -0.9835420E-02 Eh
 * total energy  :   -21.5620000 Eh     change       -0.1920900E-02 Eh
 * total energy  :   -21.5623813 Eh     change       -0.3812782E-03 Eh
 * total energy  :   -21.5626853 Eh     change       -0.3040461E-03 Eh
 * total energy  :   -21.5631152 Eh     change       -0.4299212E-03 Eh
 * total energy  :   -21.5636208 Eh     change       -0.5055998E-03 Eh
 * total energy  :   -21.5640070 Eh     change       -0.3861212E-03 Eh
 * total energy  :   -21.5634635 Eh     change        0.5434725E-03 Eh
 * total energy  :   -21.5644230 Eh     change       -0.9595659E-03 Eh
 * total energy  :   -21.5663021 Eh     change       -0.4493629E-04 Eh
 * total energy  :   -21.5663370 Eh     change       -0.3487910E-04 Eh
 * total energy  :   -21.5663544 Eh     change       -0.1737831E-04 Eh
 * total energy  :   -21.5663926 Eh     change       -0.3819958E-04 Eh
 * total energy  :   -21.5664090 Eh     change       -0.1644114E-04 Eh
 * total energy  :   -21.5664136 Eh     change       -0.4553817E-05 Eh
 * total energy  :   -21.5664283 Eh     change       -0.1470788E-04 Eh
 * total energy  :   -21.5664319 Eh     change       -0.3653276E-05 Eh
 * total energy  :   -21.5664353 Eh     change       -0.3325923E-05 Eh
   *** GEOMETRY OPTIMIZATION CONVERGED AFTER 36 ITERATIONS ***

 final structure:
================
12
 xtb: 6.2.3 (830e466)
C         1.73181826947221    0.90786557379710   -2.58314881392836
C         1.17007506433411    1.12229343994357   -1.17548642755709
C         0.91283409473351   -0.19449181511373   -0.47455454628546
O        -0.05207626703835    1.82486333881203   -1.16580697377250
O         0.20403047803457    3.20535362353923   -1.42909416895106
O         1.68975693149127   -1.10264501887322   -0.43529901128861
H        -0.68802576714569    3.57294221048139   -1.45709655121221
H         2.62147033741614    0.28864981061695   -2.51974235647720
H         1.98362446830203    1.86586840505621   -3.02991280911199
H        -0.07941346903666   -0.24040348071327    0.01003494666689
H         0.99004963087411    0.40959515168224   -3.20318963477617
H         1.90486622856278    1.67969876077149   -0.57249365330622

          :  Hamiltonian                  GFN2-xTB          :
         :: total energy             -21.566435269459 Eh    ::
         :: gradient norm              0.000918873927 Eh/a0 ::
         :: HOMO-LUMO gap              3.679980718456 eV    ::
         :: SCC energy               -21.741599288667 Eh    ::
         :: -> dispersion             -0.005931851703 Eh    ::
         :: repulsion energy           0.175156376544 Eh    ::

    * Orbital Energies and Occupations

         #    Occupation            Energy/Eh            Energy/eV
      -------------------------------------------------------------
         1        2.0000           -0.7384580             -20.0945
       ...           ...                  ...                  ...
         6        2.0000           -0.6192083             -16.8495
         7        2.0000           -0.6101464             -16.6029
         8        2.0000           -0.5976098             -16.2618
         9        2.0000           -0.5716613             -15.5557
        10        2.0000           -0.5574899             -15.1701
        11        2.0000           -0.5486578             -14.9297
        12        2.0000           -0.5312598             -14.4563
        13        2.0000           -0.5166074             -14.0576
        14        2.0000           -0.4979645             -13.5503
        15        2.0000           -0.4805431             -13.0762
        16        2.0000           -0.4715857             -12.8325
        17        2.0000           -0.4256016             -11.5812
        18        2.0000           -0.4165666             -11.3354 (HOMO)
        19                         -0.2813298              -7.6554 (LUMO)
        20                         -0.1677189              -4.5639
        21                          0.0427957               1.1645
        22                          0.0737677               2.0073
        23                          0.1189521               3.2369
        24                          0.1227355               3.3398
        25                          0.1535689               4.1788
        26                          0.1647499               4.4831
        27                          0.1920279               5.2253
        28                          0.2454723               6.6796
        29                          0.2480391               6.7495
        30                          0.6087689              16.5654
      -------------------------------------------------------------
                  HL-Gap            0.1352368 Eh            3.6800 eV

     #   Z        covCN         q      C6AA      Î±(0)
     1   6 C      3.752    -0.115    22.762     6.803
     2   6 C      3.727     0.105    18.954     6.216
     3   6 C      2.759     0.208    23.593     7.954
     4   8 O      1.778    -0.219    17.617     5.668
     5   8 O      1.733    -0.319    19.317     5.935
     6   8 O      0.856    -0.297    19.729     5.955
     7   1 H      0.805     0.324     0.652     1.269
     8   1 H      0.925     0.065     2.141     2.288
     9   1 H      0.925     0.067     2.120     2.277
    10   1 H      0.922     0.046     2.375     2.410
    11   1 H      0.925     0.057     2.234     2.337
    12   1 H      0.923     0.079     1.994     2.208

Wiberg/Mayer (AO) data.
largest (>0.10) Wiberg bond orders for each atom
          total WBO             WBO to atom ...

molecular dipole:
                 x           y           z       tot (Debye)
 q only:       -0.303       0.614      -0.284
   full:       -0.565       0.806      -0.242       2.578

           -------------------------------------------------
          | TOTAL ENERGY              -21.566435269459 Eh   |
          | GRADIENT NORM               0.000918873927 Eh/Î± |
          | HOMO-LUMO GAP               3.679980718456 eV   |
           -------------------------------------------------

 * finished run on 2020/12/23 at 21:43:45.267
