   * xtb version 6.2.3 (830e466) compiled by 'ehlert@majestix' on 2020-03-16
          program call               : xtb -c 0 -u 0 -a 1.0 --iterations 100 --opt normal --namespace product_5 /scratch/bell/zhao922/YARP/paper-example/potential_product/test/reaction_channel/pp_0/pp_13_1.xyz
          number of atoms            :                    12
          number of electrons        :                    36
          charge                     :                     0
          spin                       :                   0.0
          :  Hamiltonian                  GFN2-xTB          :
 * total energy  :   -21.4909178 Eh     change       -0.1168669E-08 Eh
 * total energy  :   -21.5066588 Eh     change       -0.1574107E-01 Eh
 * total energy  :   -21.5104497 Eh     change       -0.3790872E-02 Eh
 * total energy  :   -21.5108936 Eh     change       -0.4439460E-03 Eh
 * total energy  :   -21.5111225 Eh     change       -0.2288256E-03 Eh
 * total energy  :   -21.5113103 Eh     change       -0.1878391E-03 Eh
 * total energy  :   -21.5115243 Eh     change       -0.2140309E-03 Eh
 * total energy  :   -21.5117393 Eh     change       -0.2149299E-03 Eh
 * total energy  :   -21.5118890 Eh     change       -0.1497533E-03 Eh
 * total energy  :   -21.5119388 Eh     change       -0.4978161E-04 Eh
 * total energy  :   -21.5126783 Eh     change        0.8702920E-05 Eh
 * total energy  :   -21.5127577 Eh     change       -0.7935238E-04 Eh
 * total energy  :   -21.5127719 Eh     change       -0.1425204E-04 Eh
 * total energy  :   -21.5127775 Eh     change       -0.5523580E-05 Eh
 * total energy  :   -21.5127900 Eh     change       -0.1254016E-04 Eh
 * total energy  :   -21.5128010 Eh     change       -0.1098704E-04 Eh
 * total energy  :   -21.5128141 Eh     change       -0.1309559E-04 Eh
 * total energy  :   -21.5128254 Eh     change       -0.1133387E-04 Eh
 * total energy  :   -21.5128286 Eh     change       -0.3161927E-05 Eh
   *** GEOMETRY OPTIMIZATION CONVERGED AFTER 28 ITERATIONS ***

 final structure:
================
12
 xtb: 6.2.3 (830e466)
C         1.27509203311414    1.11259982662762   -2.32568255556173
C         0.51556360913064    0.25618281054789   -1.63183816776806
C         0.85955402856523   -1.15462948204849   -1.60011188022807
O         1.13694389159429    2.42436427950463   -2.48303545585669
O         0.00775084163391    2.96729438365218   -1.80915358813921
O         1.80213014676313   -1.65916541016372   -2.16260183344137
H         0.08750239048840    3.91194840716352   -2.00180719055983
H         2.61899530990437    2.71671302455892    0.26631500401117
H         2.15077088525875    0.78191139355745   -2.87277074755149
H         0.16713273418666   -1.76871245209242   -0.99374794217712
H        -0.35261878715515    0.59590099197157   -1.09185128281263
H         2.12019291651837    3.15519222672104    0.67048564008573

          :  Hamiltonian                  GFN2-xTB          :
         :: total energy             -21.512828578627 Eh    ::
         :: gradient norm              0.000652962298 Eh/a0 ::
         :: HOMO-LUMO gap              3.092505897797 eV    ::
         :: SCC energy               -21.732353591739 Eh    ::
         :: -> dispersion             -0.005637974913 Eh    ::
         :: repulsion energy           0.219512926205 Eh    ::

    * Orbital Energies and Occupations

         #    Occupation            Energy/Eh            Energy/eV
      -------------------------------------------------------------
         1        2.0000           -0.7705442             -20.9676
       ...           ...                  ...                  ...
         6        2.0000           -0.6392863             -17.3959
         7        2.0000           -0.6077121             -16.5367
         8        2.0000           -0.6027720             -16.4023
         9        2.0000           -0.5623345             -15.3019
        10        2.0000           -0.5597413             -15.2313
        11        2.0000           -0.5314389             -14.4612
        12        2.0000           -0.5294351             -14.4067
        13        2.0000           -0.5176799             -14.0868
        14        2.0000           -0.4931028             -13.4180
        15        2.0000           -0.4743697             -12.9083
        16        2.0000           -0.4685209             -12.7491
        17        2.0000           -0.4176987             -11.3662
        18        2.0000           -0.3998386             -10.8802 (HOMO)
        19                         -0.2861911              -7.7877 (LUMO)
        20                         -0.1877066              -5.1078
        21                         -0.1736313              -4.7247
        22                          0.0782865               2.1303
        23                          0.1021286               2.7791
        24                          0.1198815               3.2621
        25                          0.1227129               3.3392
        26                          0.1933804               5.2621
        27                          0.2125195               5.7829
        28                          0.4063445              11.0572
        29                          0.5143369              13.9958
        30                          0.6666119              18.1394
      -------------------------------------------------------------
                  HL-Gap            0.1136475 Eh            3.0925 eV

     #   Z        covCN         q      C6AA      Î±(0)
     1   6 C      2.777     0.133    25.086     8.203
     2   6 C      2.887    -0.095    30.378     9.036
     3   6 C      2.770     0.205    23.638     7.963
     4   8 O      1.784    -0.120    16.102     5.419
     5   8 O      1.737    -0.303    19.041     5.892
     6   8 O      0.857    -0.353    20.770     6.110
     7   1 H      0.805     0.334     0.628     1.244
     8   1 H      0.811    -0.000     3.109     2.769
     9   1 H      0.925     0.106     1.731     2.057
    10   1 H      0.922     0.019     2.751     2.594
    11   1 H      0.926     0.074     2.039     2.233
    12   1 H      0.811     0.000     3.105     2.767

Wiberg/Mayer (AO) data.
largest (>0.10) Wiberg bond orders for each atom
          total WBO             WBO to atom ...

molecular dipole:
                 x           y           z       tot (Debye)
 q only:       -0.461       1.288       0.103
   full:       -0.583       1.529       0.152       4.177

           -------------------------------------------------
          | TOTAL ENERGY              -21.512828578627 Eh   |
          | GRADIENT NORM               0.000652962298 Eh/Î± |
          | HOMO-LUMO GAP               3.092505897797 eV   |
           -------------------------------------------------

 * finished run on 2020/12/23 at 21:40:38.462
