   * xtb version 6.2.3 (830e466) compiled by 'ehlert@majestix' on 2020-03-16
          program call               : xtb -c 0 -u 0 -a 1.0 --iterations 100 --opt normal --namespace product_7 /scratch/bell/zhao922/YARP/paper-example/potential_product/test/reaction_channel/pp_0/pp_13_3.xyz
          number of atoms            :                    12
          number of electrons        :                    36
          charge                     :                     0
          spin                       :                   0.0
          :  Hamiltonian                  GFN2-xTB          :
 * total energy  :   -21.4903181 Eh     change        0.5189822E-08 Eh
 * total energy  :   -21.5040113 Eh     change       -0.1369317E-01 Eh
 * total energy  :   -21.5071604 Eh     change       -0.3149115E-02 Eh
 * total energy  :   -21.5076062 Eh     change       -0.4458065E-03 Eh
 * total energy  :   -21.5078726 Eh     change       -0.2663558E-03 Eh
 * total energy  :   -21.5081519 Eh     change       -0.2793270E-03 Eh
 * total energy  :   -21.5085037 Eh     change       -0.3518025E-03 Eh
 * total energy  :   -21.5086505 Eh     change       -0.1467356E-03 Eh
 * total energy  :   -21.5087352 Eh     change       -0.8472279E-04 Eh
 * total energy  :   -21.5088275 Eh     change       -0.9226838E-04 Eh
 * total energy  :   -21.5099256 Eh     change       -0.1976317E-04 Eh
 * total energy  :   -21.5099586 Eh     change       -0.3297387E-04 Eh
 * total energy  :   -21.5099825 Eh     change       -0.2389421E-04 Eh
 * total energy  :   -21.5100091 Eh     change       -0.2662432E-04 Eh
 * total energy  :   -21.5100310 Eh     change       -0.2188054E-04 Eh
 * total energy  :   -21.5100270 Eh     change        0.4004414E-05 Eh
 * total energy  :   -21.5100515 Eh     change       -0.2447995E-04 Eh
 * total energy  :   -21.5100570 Eh     change       -0.5548207E-05 Eh
 * total energy  :   -21.5100613 Eh     change       -0.4268285E-05 Eh
   *** GEOMETRY OPTIMIZATION CONVERGED AFTER 51 ITERATIONS ***

 final structure:
================
12
 xtb: 6.2.3 (830e466)
C         1.67750413534446    1.35449250508241   -1.33656622247595
C         1.14675808544200    0.12340345917871   -1.36206322192740
C         1.89574971015659   -0.99548697865240   -0.81670216205467
O         1.03140169561488    2.41626554477085   -1.82033963303191
O         1.79154381954601    3.60758848290093   -1.67851316720679
O         2.99899937781828   -0.93289694622601   -0.33031091075105
H         1.22041246517245    4.28020378167537   -2.07602020689263
H         2.66101485910001    1.53073048090408   -0.91569288308252
H        -2.15665513670695    1.97973597157407   -2.62233146715886
H         1.35741398490010   -1.95980449482029   -0.87887196460722
H         0.16936040645825   -0.05863312577103   -1.77828396203537
H        -1.40450340284901    1.99400131937996   -2.42010419877800

          :  Hamiltonian                  GFN2-xTB          :
         :: total energy             -21.510061298070 Eh    ::
         :: gradient norm              0.000435896686 Eh/a0 ::
         :: HOMO-LUMO gap              3.071893170829 eV    ::
         :: SCC energy               -21.728142022402 Eh    ::
         :: -> dispersion             -0.005469269557 Eh    ::
         :: repulsion energy           0.218078645915 Eh    ::

    * Orbital Energies and Occupations

         #    Occupation            Energy/Eh            Energy/eV
      -------------------------------------------------------------
         1        2.0000           -0.7724195             -21.0186
       ...           ...                  ...                  ...
         6        2.0000           -0.6412326             -17.4488
         7        2.0000           -0.6092453             -16.5784
         8        2.0000           -0.6025982             -16.3975
         9        2.0000           -0.5748571             -15.6427
        10        2.0000           -0.5537510             -15.0683
        11        2.0000           -0.5353339             -14.5672
        12        2.0000           -0.5320170             -14.4769
        13        2.0000           -0.5186335             -14.1127
        14        2.0000           -0.4951016             -13.4724
        15        2.0000           -0.4797543             -13.0548
        16        2.0000           -0.4678159             -12.7299
        17        2.0000           -0.4185183             -11.3885
        18        2.0000           -0.4023754             -10.9492 (HOMO)
        19                         -0.2894854              -7.8773 (LUMO)
        20                         -0.1926311              -5.2418
        21                         -0.1782142              -4.8495
        22                          0.0939625               2.5568
        23                          0.0961238               2.6157
        24                          0.1045762               2.8457
        25                          0.1404239               3.8211
        26                          0.1833615               4.9895
        27                          0.2055364               5.5929
        28                          0.4244383              11.5496
        29                          0.4782238              13.0131
        30                          0.6559468              17.8492
      -------------------------------------------------------------
                  HL-Gap            0.1128900 Eh            3.0719 eV

     #   Z        covCN         q      C6AA      Î±(0)
     1   6 C      2.778     0.136    25.017     8.192
     2   6 C      2.888    -0.097    30.434     9.044
     3   6 C      2.770     0.207    23.611     7.958
     4   8 O      1.787    -0.116    16.051     5.410
     5   8 O      1.740    -0.300    18.986     5.883
     6   8 O      0.857    -0.348    20.675     6.096
     7   1 H      0.805     0.334     0.628     1.245
     8   1 H      0.925     0.101     1.775     2.084
     9   1 H      0.807    -0.004     3.191     2.806
    10   1 H      0.922     0.021     2.725     2.582
    11   1 H      0.926     0.064     2.150     2.293
    12   1 H      0.807     0.004     3.048     2.742

Wiberg/Mayer (AO) data.
largest (>0.10) Wiberg bond orders for each atom
          total WBO             WBO to atom ...

molecular dipole:
                 x           y           z       tot (Debye)
 q only:       -0.894       0.878      -0.572
   full:       -1.165       0.998      -0.719       4.306

           -------------------------------------------------
          | TOTAL ENERGY              -21.510061298070 Eh   |
          | GRADIENT NORM               0.000435896686 Eh/Î± |
          | HOMO-LUMO GAP               3.071893170829 eV   |
           -------------------------------------------------

 * finished run on 2020/12/23 at 21:40:49.669
