   * xtb version 6.2.3 (830e466) compiled by 'ehlert@majestix' on 2020-03-16
          program call               : xtb -c 0 -u 0 -a 1.0 --iterations 100 --opt normal --namespace product_27 /scratch/bell/zhao922/YARP/paper-example/potential_product/test/reaction_channel/pp_0/pp_2_0.xyz
          number of atoms            :                    12
          number of electrons        :                    36
          charge                     :                     0
          spin                       :                   0.0
          :  Hamiltonian                  GFN2-xTB          :
 * total energy  :   -21.5623734 Eh     change        0.1001891E-07 Eh
 * total energy  :   -21.5727348 Eh     change       -0.1036136E-01 Eh
 * total energy  :   -21.5748740 Eh     change       -0.2139290E-02 Eh
 * total energy  :   -21.5752420 Eh     change       -0.3679893E-03 Eh
 * total energy  :   -21.5755122 Eh     change       -0.2701786E-03 Eh
 * total energy  :   -21.5758476 Eh     change       -0.3354381E-03 Eh
 * total energy  :   -21.5762614 Eh     change       -0.4137842E-03 Eh
 * total energy  :   -21.5766484 Eh     change       -0.3870078E-03 Eh
 * total energy  :   -21.5769275 Eh     change       -0.2790166E-03 Eh
 * total energy  :   -21.5771071 Eh     change       -0.1795995E-03 Eh
 * total energy  :   -21.5787412 Eh     change       -0.2497718E-03 Eh
 * total energy  :   -21.5787612 Eh     change       -0.1999011E-04 Eh
 * total energy  :   -21.5789342 Eh     change       -0.1730163E-03 Eh
 * total energy  :   -21.5789865 Eh     change       -0.5226630E-04 Eh
 * total energy  :   -21.5789984 Eh     change       -0.1188258E-04 Eh
 * total energy  :   -21.5790322 Eh     change       -0.3383334E-04 Eh
 * total energy  :   -21.5790448 Eh     change       -0.1264118E-04 Eh
 * total energy  :   -21.5790506 Eh     change       -0.5757755E-05 Eh
 * total energy  :   -21.5790517 Eh     change       -0.1121973E-05 Eh
   *** GEOMETRY OPTIMIZATION CONVERGED AFTER 35 ITERATIONS ***

 final structure:
================
12
 xtb: 6.2.3 (830e466)
C         1.81100647813897    1.33185211022045   -2.31880124404095
C         0.18775825329623    0.09496085149831   -0.77918380122026
C         1.57270974521594    0.18058418578576   -1.33775409962900
O         0.78101037637560    2.27909124038239   -2.40983245164783
O         0.72110301154180    3.06155124854418   -1.22059854651502
O         2.46597168350429   -0.58066429391765   -1.07136197714812
H         0.65938468158932    3.96705534549569   -1.55322109966920
H         2.77253128892481    1.80651458018382   -2.08265995590174
H         1.87004495630854    0.91509051160517   -3.32942936878053
H         0.06996214581417   -0.81227056078709   -0.19443688890368
H        -0.53759504181770    0.12934052351436   -1.58893054429164
H         0.01512242110802    0.96648425747453   -0.14960002225193

          :  Hamiltonian                  GFN2-xTB          :
         :: total energy             -21.579051728032 Eh    ::
         :: gradient norm              0.000385006140 Eh/a0 ::
         :: HOMO-LUMO gap              3.901323736280 eV    ::
         :: SCC energy               -21.755555963526 Eh    ::
         :: -> dispersion             -0.005962102825 Eh    ::
         :: repulsion energy           0.176496519976 Eh    ::

    * Orbital Energies and Occupations

         #    Occupation            Energy/Eh            Energy/eV
      -------------------------------------------------------------
         1        2.0000           -0.7397844             -20.1306
       ...           ...                  ...                  ...
         6        2.0000           -0.6239134             -16.9775
         7        2.0000           -0.6049788             -16.4623
         8        2.0000           -0.5910669             -16.0838
         9        2.0000           -0.5651708             -15.3791
        10        2.0000           -0.5497606             -14.9597
        11        2.0000           -0.5414875             -14.7346
        12        2.0000           -0.5207192             -14.1695
        13        2.0000           -0.4967585             -13.5175
        14        2.0000           -0.4896585             -13.3243
        15        2.0000           -0.4764764             -12.9656
        16        2.0000           -0.4741140             -12.9013
        17        2.0000           -0.4448894             -12.1061
        18        2.0000           -0.3999042             -10.8819 (HOMO)
        19                         -0.2565332              -6.9806 (LUMO)
        20                         -0.1633361              -4.4446
        21                          0.0558782               1.5205
        22                          0.0678900               1.8474
        23                          0.1179931               3.2108
        24                          0.1496015               4.0709
        25                          0.1689544               4.5975
        26                          0.1814052               4.9363
        27                          0.1910987               5.2001
        28                          0.2207566               6.0071
        29                          0.2614594               7.1147
        30                          0.6273307              17.0705
      -------------------------------------------------------------
                  HL-Gap            0.1433710 Eh            3.9013 eV

     #   Z        covCN         q      C6AA      Î±(0)
     1   6 C      3.677     0.053    19.899     6.391
     2   6 C      3.754    -0.139    23.226     6.872
     3   6 C      2.807     0.237    23.043     7.864
     4   8 O      1.779    -0.202    17.357     5.626
     5   8 O      1.735    -0.323    19.398     5.947
     6   8 O      0.857    -0.353    20.763     6.109
     7   1 H      0.805     0.320     0.664     1.280
     8   1 H      0.923     0.071     2.070     2.250
     9   1 H      0.924     0.089     1.887     2.148
    10   1 H      0.925     0.069     2.096     2.264
    11   1 H      0.925     0.079     1.985     2.203
    12   1 H      0.925     0.098     1.806     2.101

Wiberg/Mayer (AO) data.
largest (>0.10) Wiberg bond orders for each atom
          total WBO             WBO to atom ...

molecular dipole:
                 x           y           z       tot (Debye)
 q only:       -0.527       0.724      -0.320
   full:       -0.552       1.008      -0.469       3.156

           -------------------------------------------------
          | TOTAL ENERGY              -21.579051728032 Eh   |
          | GRADIENT NORM               0.000385006140 Eh/Î± |
          | HOMO-LUMO GAP               3.901323736280 eV   |
           -------------------------------------------------

 * finished run on 2020/12/23 at 21:42:51.166
