   * xtb version 6.2.3 (830e466) compiled by 'ehlert@majestix' on 2020-03-16
          program call               : xtb -c 0 -u 0 -a 1.0 --iterations 100 --opt normal --namespace product_34 /scratch/bell/zhao922/YARP/paper-example/potential_product/test/reaction_channel/pp_0/pp_8_1.xyz
          number of atoms            :                    12
          number of electrons        :                    36
          charge                     :                     0
          spin                       :                   0.0
          :  Hamiltonian                  GFN2-xTB          :
 * total energy  :   -21.5056946 Eh     change       -0.4767617E-08 Eh
 * total energy  :   -21.5133441 Eh     change       -0.7649420E-02 Eh
 * total energy  :   -21.5149256 Eh     change       -0.1581520E-02 Eh
 * total energy  :   -21.5151646 Eh     change       -0.2390339E-03 Eh
 * total energy  :   -21.5155757 Eh     change       -0.4110431E-03 Eh
 * total energy  :   -21.5158189 Eh     change       -0.2432213E-03 Eh
 * total energy  :   -21.5158168 Eh     change        0.2089042E-05 Eh
 * total energy  :   -21.5162286 Eh     change       -0.4117876E-03 Eh
 * total energy  :   -21.5164269 Eh     change       -0.1983070E-03 Eh
 * total energy  :   -21.5166894 Eh     change       -0.2625333E-03 Eh
 * total energy  :   -21.5262284 Eh     change       -0.2939173E-04 Eh
 * total energy  :   -21.5262640 Eh     change       -0.3562585E-04 Eh
 * total energy  :   -21.5262934 Eh     change       -0.2943651E-04 Eh
 * total energy  :   -21.5262688 Eh     change        0.2465246E-04 Eh
 * total energy  :   -21.5263293 Eh     change       -0.6045483E-04 Eh
 * total energy  :   -21.5263443 Eh     change       -0.1505589E-04 Eh
 * total energy  :   -21.5263501 Eh     change       -0.5770899E-05 Eh
 * total energy  :   -21.5263615 Eh     change       -0.1140667E-04 Eh
 * total energy  :   -21.5263658 Eh     change       -0.4293789E-05 Eh
   *** GEOMETRY OPTIMIZATION CONVERGED AFTER 79 ITERATIONS ***

 final structure:
================
12
 xtb: 6.2.3 (830e466)
C         1.30148195743023    0.68890575375758   -2.88856030194749
C         1.12440523713000   -0.44959802605392   -2.22151113266226
C         0.92557136617809   -0.48881506681287   -0.77262599190230
O         0.42380876264762    3.26137147370158   -0.13914197960309
O         1.21682387420455    3.58378977902513   -1.27573081118488
O         0.82934792198039    0.46997734067691   -0.04352246844326
H         1.24276062095081    4.54713709793450   -1.23455349816791
H         1.30772755389860    1.64146659330755   -2.38272803725697
H         1.45115602761998    0.70427755433274   -3.95503834527559
H         0.86480967169768   -1.51033395686304   -0.35383131795007
H         1.12782512531260   -1.40688738881108   -2.72422662271901
H         0.57327188095187    2.29831884580497   -0.04432949288714

          :  Hamiltonian                  GFN2-xTB          :
         :: total energy             -21.526365783594 Eh    ::
         :: gradient norm              0.000614982549 Eh/a0 ::
         :: HOMO-LUMO gap              2.702623796083 eV    ::
         :: SCC energy               -21.733525408928 Eh    ::
         :: -> dispersion             -0.005464059185 Eh    ::
         :: repulsion energy           0.207150020962 Eh    ::

    * Orbital Energies and Occupations

         #    Occupation            Energy/Eh            Energy/eV
      -------------------------------------------------------------
         1        2.0000           -0.7269915             -19.7824
       ...           ...                  ...                  ...
         6        2.0000           -0.5971518             -16.2493
         7        2.0000           -0.5857530             -15.9392
         8        2.0000           -0.5739673             -15.6184
         9        2.0000           -0.5695323             -15.4978
        10        2.0000           -0.5496507             -14.9568
        11        2.0000           -0.5289185             -14.3926
        12        2.0000           -0.5280485             -14.3689
        13        2.0000           -0.5080048             -13.8235
        14        2.0000           -0.4926336             -13.4052
        15        2.0000           -0.4633066             -12.6072
        16        2.0000           -0.4504779             -12.2581
        17        2.0000           -0.4167292             -11.3398
        18        2.0000           -0.4085820             -11.1181 (HOMO)
        19                         -0.3092624              -8.4155 (LUMO)
        20                         -0.1906294              -5.1873
        21                         -0.1314051              -3.5757
        22                          0.0842676               2.2930
        23                          0.1008688               2.7448
        24                          0.1393477               3.7918
        25                          0.1719497               4.6790
        26                          0.2107731               5.7354
        27                          0.2132183               5.8020
        28                          0.4219612              11.4821
        29                          0.4862813              13.2324
        30                          0.6620044              18.0141
      -------------------------------------------------------------
                  HL-Gap            0.0993196 Eh            2.7026 eV

     #   Z        covCN         q      C6AA      Î±(0)
     1   6 C      2.841    -0.052    29.273     8.867
     2   6 C      2.886    -0.050    29.245     8.866
     3   6 C      2.765     0.215    23.454     7.931
     4   8 O      1.733    -0.346    19.803     6.009
     5   8 O      1.734    -0.340    19.693     5.992
     6   8 O      0.856    -0.341    20.529     6.075
     7   1 H      0.805     0.315     0.678     1.293
     8   1 H      0.926     0.109     1.705     2.042
     9   1 H      0.926     0.065     2.139     2.287
    10   1 H      0.922     0.023     2.689     2.564
    11   1 H      0.925     0.052     2.300     2.372
    12   1 H      0.803     0.349     0.590     1.207

Wiberg/Mayer (AO) data.
largest (>0.10) Wiberg bond orders for each atom
          total WBO             WBO to atom ...

molecular dipole:
                 x           y           z       tot (Debye)
 q only:        0.264      -0.512      -0.906
   full:        0.325      -0.683      -0.996       3.178

           -------------------------------------------------
          | TOTAL ENERGY              -21.526365783594 Eh   |
          | GRADIENT NORM               0.000614982549 Eh/Î± |
          | HOMO-LUMO GAP               2.702623796083 eV   |
           -------------------------------------------------

 * finished run on 2020/12/23 at 21:43:39.661
