   * xtb version 6.2.3 (830e466) compiled by 'ehlert@majestix' on 2020-03-16
          program call               : xtb -c 0 -u 0 -a 1.0 --iterations 100 --opt normal --namespace product_24 /scratch/bell/zhao922/YARP/paper-example/potential_product/test/reaction_channel/pp_0/pp_23_0.xyz
          number of atoms            :                    12
          number of electrons        :                    36
          charge                     :                     0
          spin                       :                   0.0
          :  Hamiltonian                  GFN2-xTB          :
 * total energy  :   -21.5119974 Eh     change       -0.1490275E-08 Eh
 * total energy  :   -21.5209353 Eh     change       -0.8937900E-02 Eh
 * total energy  :   -21.5220779 Eh     change       -0.1142561E-02 Eh
 * total energy  :   -21.5220976 Eh     change       -0.1974890E-04 Eh
 * total energy  :   -21.5220997 Eh     change       -0.2079252E-05 Eh
   *** GEOMETRY OPTIMIZATION CONVERGED AFTER 5 ITERATIONS ***

 final structure:
================
12
 xtb: 6.2.3 (830e466)
C         0.65551739415480    1.52873055576418   -2.63520888397931
C         0.65231043135657    0.40197239521171   -1.60132096427234
C         1.77038281434115    0.64783276090119   -0.58742868887981
O         0.73688824322050    2.80945920881198   -1.99621239770308
O         0.62977164590541    2.67383717805567   -0.61177422223429
O         1.75434656374542    2.00537380581171   -0.12696236499695
H         2.75208294738627    0.49239758664675   -1.04894105980091
H         1.53438125830480    1.45442672353537   -3.28556367614171
H        -0.25322659391924    1.50411267045413   -3.24610515596995
H         1.66657432380582   -0.01282191417143    0.27996492126346
H         0.79897108263892   -0.55679929960858   -2.09360187728144
H        -0.30899011094042    0.39107832858733   -1.08264563000367

          :  Hamiltonian                  GFN2-xTB          :
         :: total energy             -21.522099687789 Eh    ::
         :: gradient norm              0.000400674761 Eh/a0 ::
         :: HOMO-LUMO gap              7.082836163827 eV    ::
         :: SCC energy               -21.661379197693 Eh    ::
         :: -> dispersion             -0.006320684536 Eh    ::
         :: repulsion energy           0.139275338095 Eh    ::

    * Orbital Energies and Occupations

         #    Occupation            Energy/Eh            Energy/eV
      -------------------------------------------------------------
         1        2.0000           -0.7567910             -20.5933
       ...           ...                  ...                  ...
         6        2.0000           -0.6300510             -17.1446
         7        2.0000           -0.6161201             -16.7655
         8        2.0000           -0.6094477             -16.5839
         9        2.0000           -0.5913003             -16.0901
        10        2.0000           -0.5544185             -15.0865
        11        2.0000           -0.5450945             -14.8328
        12        2.0000           -0.5390153             -14.6674
        13        2.0000           -0.5108802             -13.9018
        14        2.0000           -0.5066295             -13.7861
        15        2.0000           -0.5001296             -13.6092
        16        2.0000           -0.4678219             -12.7301
        17        2.0000           -0.4377113             -11.9107
        18        2.0000           -0.4240476             -11.5389 (HOMO)
        19                         -0.1637582              -4.4561 (LUMO)
        20                         -0.1075591              -2.9268
        21                          0.0163972               0.4462
        22                          0.0254649               0.6929
        23                          0.0677025               1.8423
        24                          0.1117115               3.0398
        25                          0.1117133               3.0399
        26                          0.1343575               3.6561
        27                          0.1537060               4.1826
        28                          0.2062246               5.6117
        29                          0.2100407               5.7155
        30                          0.2540801               6.9139
      -------------------------------------------------------------
                  HL-Gap            0.2602894 Eh            7.0828 eV

     #   Z        covCN         q      C6AA      Î±(0)
     1   6 C      3.676     0.078    19.494     6.326
     2   6 C      3.799    -0.060    21.650     6.625
     3   6 C      3.676     0.078    19.494     6.326
     4   8 O      1.793    -0.183    17.057     5.577
     5   8 O      1.895    -0.066    15.340     5.289
     6   8 O      1.793    -0.183    17.057     5.577
     7   1 H      0.924     0.056     2.243     2.342
     8   1 H      0.924     0.056     2.243     2.342
     9   1 H      0.924     0.053     2.284     2.363
    10   1 H      0.924     0.053     2.284     2.363
    11   1 H      0.925     0.051     2.308     2.376
    12   1 H      0.924     0.067     2.116     2.275

Wiberg/Mayer (AO) data.
largest (>0.10) Wiberg bond orders for each atom
          total WBO             WBO to atom ...

molecular dipole:
                 x           y           z       tot (Debye)
 q only:       -0.023      -1.375      -0.579
   full:       -0.035      -1.558      -0.651       4.292

           -------------------------------------------------
          | TOTAL ENERGY              -21.522099687789 Eh   |
          | GRADIENT NORM               0.000400674761 Eh/Î± |
          | HOMO-LUMO GAP               7.082836163827 eV   |
           -------------------------------------------------

 * finished run on 2020/12/23 at 21:42:34.965
