   * xtb version 6.2.3 (830e466) compiled by 'ehlert@majestix' on 2020-03-16
          program call               : xtb -c 0 -u 0 -a 1.0 --iterations 100 --opt normal --namespace product_21 /scratch/bell/zhao922/YARP/paper-example/potential_product/test/reaction_channel/pp_0/pp_21_1.xyz
          number of atoms            :                    12
          number of electrons        :                    36
          charge                     :                     0
          spin                       :                   0.0
          :  Hamiltonian                  GFN2-xTB          :
 * total energy  :   -21.6191901 Eh     change        0.1090047E-08 Eh
 * total energy  :   -21.6244607 Eh     change       -0.5270638E-02 Eh
 * total energy  :   -21.6264112 Eh     change       -0.1950456E-02 Eh
 * total energy  :   -21.6269137 Eh     change       -0.5025410E-03 Eh
 * total energy  :   -21.6275419 Eh     change       -0.6282389E-03 Eh
 * total energy  :   -21.6281418 Eh     change       -0.5998464E-03 Eh
 * total energy  :   -21.6284254 Eh     change       -0.2836003E-03 Eh
 * total energy  :   -21.6285036 Eh     change       -0.7821229E-04 Eh
 * total energy  :   -21.6288397 Eh     change       -0.3361152E-03 Eh
 * total energy  :   -21.6289319 Eh     change       -0.9215293E-04 Eh
 * total energy  :   -21.6292900 Eh     change       -0.1239530E-03 Eh
 * total energy  :   -21.6294437 Eh     change       -0.1537134E-03 Eh
 * total energy  :   -21.6295397 Eh     change       -0.9595651E-04 Eh
 * total energy  :   -21.6295544 Eh     change       -0.1467771E-04 Eh
 * total energy  :   -21.6296189 Eh     change       -0.6454849E-04 Eh
 * total energy  :   -21.6296348 Eh     change       -0.1590775E-04 Eh
 * total energy  :   -21.6296526 Eh     change       -0.1775757E-04 Eh
 * total energy  :   -21.6296571 Eh     change       -0.4477557E-05 Eh
 * total energy  :   -21.6296594 Eh     change       -0.2309118E-05 Eh
   *** GEOMETRY OPTIMIZATION CONVERGED AFTER 21 ITERATIONS ***

 final structure:
================
12
 xtb: 6.2.3 (830e466)
C         0.87309650147999    1.39161448669456   -2.43267629551257
C         0.95550603644613    0.95334518499757   -0.95093964020258
C         1.82316446174676   -0.28584622708548   -0.85826230612759
O         0.20145800222770    2.61823366742704   -2.54251445190526
O         1.45587915854676    1.99259946340268   -0.16145703860535
O         2.93422447544318   -0.33453877959331   -0.42833294307633
H         1.34176839527182    2.82213493267153   -0.64761585978992
H         1.88262701843980    1.57401165809830   -2.80941580480759
H         0.39794322000769    0.60891731010094   -3.03608181621296
H         1.30910026418469   -1.18385432809116   -1.26111010902522
H        -0.06049970772017    0.67878460151435   -0.60721881356491
H        -0.72527782607434    2.50419802986298   -2.30018492116973

          :  Hamiltonian                  GFN2-xTB          :
         :: total energy             -21.629659375784 Eh    ::
         :: gradient norm              0.000471206410 Eh/a0 ::
         :: HOMO-LUMO gap              3.608137586731 eV    ::
         :: SCC energy               -21.806753689487 Eh    ::
         :: -> dispersion             -0.006098118076 Eh    ::
         :: repulsion energy           0.177089290402 Eh    ::

    * Orbital Energies and Occupations

         #    Occupation            Energy/Eh            Energy/eV
      -------------------------------------------------------------
         1        2.0000           -0.7324760             -19.9317
       ...           ...                  ...                  ...
         6        2.0000           -0.6164828             -16.7753
         7        2.0000           -0.6077468             -16.5376
         8        2.0000           -0.5863339             -15.9550
         9        2.0000           -0.5841395             -15.8952
        10        2.0000           -0.5575636             -15.1721
        11        2.0000           -0.5539253             -15.0731
        12        2.0000           -0.5404158             -14.7055
        13        2.0000           -0.5268445             -14.3362
        14        2.0000           -0.5006361             -13.6230
        15        2.0000           -0.4851504             -13.2016
        16        2.0000           -0.4575189             -12.4497
        17        2.0000           -0.4350090             -11.8372
        18        2.0000           -0.4104172             -11.1680 (HOMO)
        19                         -0.2778205              -7.5599 (LUMO)
        20                          0.0159417               0.4338
        21                          0.0304775               0.8293
        22                          0.0619359               1.6854
        23                          0.0980882               2.6691
        24                          0.1123683               3.0577
        25                          0.1412709               3.8442
        26                          0.1519407               4.1345
        27                          0.2009152               5.4672
        28                          0.2158642               5.8740
        29                          0.2474481               6.7334
        30                          0.6269135              17.0592
      -------------------------------------------------------------
                  HL-Gap            0.1325966 Eh            3.6081 eV

     #   Z        covCN         q      C6AA      Î±(0)
     1   6 C      3.676     0.068    19.651     6.351
     2   6 C      3.723     0.086    19.250     6.266
     3   6 C      2.758     0.202    23.702     7.972
     4   8 O      1.656    -0.426    21.362     6.239
     5   8 O      1.656    -0.423    21.299     6.230
     6   8 O      0.856    -0.274    19.313     5.892
     7   1 H      0.805     0.314     0.680     1.295
     8   1 H      0.924     0.069     2.094     2.263
     9   1 H      0.924     0.029     2.599     2.521
    10   1 H      0.922     0.019     2.756     2.596
    11   1 H      0.922     0.037     2.491     2.468
    12   1 H      0.805     0.298     0.728     1.340

Wiberg/Mayer (AO) data.
largest (>0.10) Wiberg bond orders for each atom
          total WBO             WBO to atom ...

molecular dipole:
                 x           y           z       tot (Debye)
 q only:       -1.180       0.029      -0.700
   full:       -1.630      -0.103      -0.910       4.752

           -------------------------------------------------
          | TOTAL ENERGY              -21.629659375784 Eh   |
          | GRADIENT NORM               0.000471206410 Eh/Î± |
          | HOMO-LUMO GAP               3.608137586731 eV   |
           -------------------------------------------------

 * finished run on 2020/12/23 at 21:42:18.962
