   * xtb version 6.2.3 (830e466) compiled by 'ehlert@majestix' on 2020-03-16
          program call               : xtb -c 0 -u 0 -a 1.0 --iterations 100 --opt normal --namespace product_15 /scratch/bell/zhao922/YARP/paper-example/potential_product/test/reaction_channel/pp_0/pp_19_0.xyz
          number of atoms            :                    12
          number of electrons        :                    36
          charge                     :                     0
          spin                       :                   0.0
          :  Hamiltonian                  GFN2-xTB          :
 * total energy  :   -21.5462863 Eh     change        0.9672792E-08 Eh
 * total energy  :   -21.5584848 Eh     change       -0.1219840E-01 Eh
 * total energy  :   -21.5617043 Eh     change       -0.3219556E-02 Eh
 * total energy  :   -21.5618563 Eh     change       -0.1520405E-03 Eh
 * total energy  :   -21.5619531 Eh     change       -0.9673070E-04 Eh
 * total energy  :   -21.5620396 Eh     change       -0.8651386E-04 Eh
 * total energy  :   -21.5620866 Eh     change       -0.4698328E-04 Eh
 * total energy  :   -21.5621475 Eh     change       -0.6090544E-04 Eh
 * total energy  :   -21.5621801 Eh     change       -0.3264434E-04 Eh
 * total energy  :   -21.5622159 Eh     change       -0.3573966E-04 Eh
 * total energy  :   -21.5625926 Eh     change       -0.3387423E-05 Eh
 * total energy  :   -21.5626049 Eh     change       -0.1230737E-04 Eh
 * total energy  :   -21.5626129 Eh     change       -0.8002847E-05 Eh
 * total energy  :   -21.5626203 Eh     change       -0.7416071E-05 Eh
 * total energy  :   -21.5626263 Eh     change       -0.5965577E-05 Eh
 * total energy  :   -21.5626313 Eh     change       -0.4999413E-05 Eh
 * total energy  :   -21.5626315 Eh     change       -0.1975531E-06 Eh
 * total energy  :   -21.5626367 Eh     change       -0.5165962E-05 Eh
 * total energy  :   -21.5626382 Eh     change       -0.1558583E-05 Eh
   *** GEOMETRY OPTIMIZATION CONVERGED AFTER 38 ITERATIONS ***

 final structure:
================
12
 xtb: 6.2.3 (830e466)
C         1.84381422206131    1.47239104710317   -2.14839238507021
C         1.08009168507994    0.76265262684780   -1.07321333526854
C         0.62399760106163   -0.47532014081995   -1.19483903948939
O         1.12379012669114    2.53113278875577   -2.74132205697866
O         0.96638054708290    3.59028251237270   -1.79141471799269
O        -0.07612694451811   -1.15796216051314   -0.26229651718335
H         0.54793407310880    4.27526263994208   -2.32757853875269
H         2.79238089367590    1.85967628830224   -1.75112481007549
H         2.04067130685813    0.81102449721421   -2.99508023943609
H         0.79936111335665   -1.07918294617640   -2.07374332055451
H        -0.23200931003497   -0.59501161447821    0.50711167817767
H         0.87872468557665    1.34467446144976   -0.18390671737607

          :  Hamiltonian                  GFN2-xTB          :
         :: total energy             -21.562638201261 Eh    ::
         :: gradient norm              0.000302757760 Eh/a0 ::
         :: HOMO-LUMO gap              5.114139702602 eV    ::
         :: SCC energy               -21.749674555915 Eh    ::
         :: -> dispersion             -0.005643014349 Eh    ::
         :: repulsion energy           0.187031568912 Eh    ::

    * Orbital Energies and Occupations

         #    Occupation            Energy/Eh            Energy/eV
      -------------------------------------------------------------
         1        2.0000           -0.7200175             -19.5927
       ...           ...                  ...                  ...
         6        2.0000           -0.6131417             -16.6844
         7        2.0000           -0.6068557             -16.5134
         8        2.0000           -0.5713992             -15.5486
         9        2.0000           -0.5662617             -15.4088
        10        2.0000           -0.5402254             -14.7003
        11        2.0000           -0.5259323             -14.3113
        12        2.0000           -0.5218509             -14.2003
        13        2.0000           -0.5072857             -13.8039
        14        2.0000           -0.4826413             -13.1333
        15        2.0000           -0.4741250             -12.9016
        16        2.0000           -0.4523329             -12.3086
        17        2.0000           -0.4069690             -11.0742
        18        2.0000           -0.3895433             -10.6000 (HOMO)
        19                         -0.2016021              -5.4859 (LUMO)
        20                         -0.1494254              -4.0661
        21                          0.0568643               1.5474
        22                          0.0819444               2.2298
        23                          0.1197594               3.2588
        24                          0.1381398               3.7590
        25                          0.1482658               4.0345
        26                          0.1780425               4.8448
        27                          0.2016503               5.4872
        28                          0.2410156               6.5584
        29                          0.3882798              10.5656
        30                          0.6311255              17.1738
      -------------------------------------------------------------
                  HL-Gap            0.1879412 Eh            5.1141 eV

     #   Z        covCN         q      C6AA      Î±(0)
     1   6 C      3.682     0.085    19.362     6.301
     2   6 C      2.884    -0.101    30.534     9.059
     3   6 C      2.765     0.095    25.872     8.330
     4   8 O      1.774    -0.216    17.566     5.659
     5   8 O      1.731    -0.326    19.451     5.955
     6   8 O      1.659    -0.374    20.343     6.089
     7   1 H      0.805     0.317     0.671     1.287
     8   1 H      0.923     0.051     2.311     2.377
     9   1 H      0.924     0.060     2.198     2.319
    10   1 H      0.926     0.055     2.263     2.352
    11   1 H      0.805     0.301     0.717     1.330
    12   1 H      0.925     0.052     2.299     2.371

Wiberg/Mayer (AO) data.
largest (>0.10) Wiberg bond orders for each atom
          total WBO             WBO to atom ...

molecular dipole:
                 x           y           z       tot (Debye)
 q only:        0.068       0.094       0.203
   full:        0.063       0.345       0.200       1.027

           -------------------------------------------------
          | TOTAL ENERGY              -21.562638201261 Eh   |
          | GRADIENT NORM               0.000302757760 Eh/Î± |
          | HOMO-LUMO GAP               5.114139702602 eV   |
           -------------------------------------------------

 * finished run on 2020/12/23 at 21:41:38.671
