   * xtb version 6.2.3 (830e466) compiled by 'ehlert@majestix' on 2020-03-16
          program call               : xtb -c 0 -u 0 -a 1.0 --iterations 100 --opt normal --namespace product_19 /scratch/bell/zhao922/YARP/paper-example/potential_product/test/reaction_channel/pp_0/pp_20_1.xyz
          number of atoms            :                    12
          number of electrons        :                    36
          charge                     :                     0
          spin                       :                   0.0
          :  Hamiltonian                  GFN2-xTB          :
 * total energy  :   -21.4876973 Eh     change       -0.7209302E-08 Eh
 * total energy  :   -21.5033893 Eh     change       -0.1569198E-01 Eh
 * total energy  :   -21.5068635 Eh     change       -0.3474267E-02 Eh
 * total energy  :   -21.5082423 Eh     change       -0.1378784E-02 Eh
 * total energy  :   -21.5092714 Eh     change       -0.1029050E-02 Eh
 * total energy  :   -21.5101050 Eh     change       -0.8336695E-03 Eh
 * total energy  :   -21.5106266 Eh     change       -0.5215596E-03 Eh
 * total energy  :   -21.5111916 Eh     change       -0.5649929E-03 Eh
 * total energy  :   -21.5115278 Eh     change       -0.3361826E-03 Eh
 * total energy  :   -21.5117311 Eh     change       -0.2033014E-03 Eh
 * total energy  :   -21.5131649 Eh     change       -0.1723403E-04 Eh
 * total energy  :   -21.5131768 Eh     change       -0.1191234E-04 Eh
 * total energy  :   -21.5132020 Eh     change       -0.2525104E-04 Eh
 * total energy  :   -21.5132113 Eh     change       -0.9293517E-05 Eh
 * total energy  :   -21.5132193 Eh     change       -0.7999231E-05 Eh
 * total energy  :   -21.5132242 Eh     change       -0.4834562E-05 Eh
 * total energy  :   -21.5132292 Eh     change       -0.5070887E-05 Eh
 * total energy  :   -21.5132319 Eh     change       -0.2693265E-05 Eh
 * total energy  :   -21.5132360 Eh     change       -0.4133062E-05 Eh
   *** GEOMETRY OPTIMIZATION CONVERGED AFTER 51 ITERATIONS ***

 final structure:
================
12
 xtb: 6.2.3 (830e466)
C         1.41865626089646    1.59231184338338   -2.85810618111388
C         1.10181953354586    0.49585582086361   -1.86894053897808
C         1.84078804527648    0.26684274958490   -0.82990909483066
O         0.81520524741269    2.82073987852020   -2.53431468922537
O         1.48575051555132    3.38947763658520   -1.40842747880836
O         2.53409286325223    0.02135432768586    0.06849323969771
H         0.91276607245152    4.13353792866244   -1.18400344634157
H         2.50218017436110    1.72741102068834   -2.94805916329469
H         0.98917427107640    1.35653157353830   -3.83375801561313
H        -0.99167001055596   -1.40406992900449    0.81907937381002
H         0.14743745044834    0.00638576195466   -1.95698406485375
H        -0.36720042371149   -1.06678861246435    0.49913005955271

          :  Hamiltonian                  GFN2-xTB          :
         :: total energy             -21.513236048619 Eh    ::
         :: gradient norm              0.000776180738 Eh/a0 ::
         :: HOMO-LUMO gap              3.490333883707 eV    ::
         :: SCC energy               -21.750780473556 Eh    ::
         :: -> dispersion             -0.005617533104 Eh    ::
         :: repulsion energy           0.237531274022 Eh    ::

    * Orbital Energies and Occupations

         #    Occupation            Energy/Eh            Energy/eV
      -------------------------------------------------------------
         1        2.0000           -0.7517871             -20.4572
       ...           ...                  ...                  ...
         6        2.0000           -0.6178057             -16.8113
         7        2.0000           -0.5978222             -16.2676
         8        2.0000           -0.5841445             -15.8954
         9        2.0000           -0.5797520             -15.7759
        10        2.0000           -0.5710124             -15.5380
        11        2.0000           -0.5590441             -15.2124
        12        2.0000           -0.5312870             -14.4571
        13        2.0000           -0.5118655             -13.9286
        14        2.0000           -0.4944928             -13.4558
        15        2.0000           -0.4754686             -12.9382
        16        2.0000           -0.4683289             -12.7439
        17        2.0000           -0.4197410             -11.4217
        18        2.0000           -0.3922401             -10.6734 (HOMO)
        19                         -0.2639727              -7.1831 (LUMO)
        20                         -0.1789239              -4.8688
        21                         -0.1552951              -4.2258
        22                          0.0783365               2.1316
        23                          0.0996154               2.7107
        24                          0.1236164               3.3638
        25                          0.1322923               3.5999
        26                          0.1643077               4.4710
        27                          0.1719781               4.6798
        28                          0.2822369               7.6801
        29                          0.3742453              10.1837
        30                          1.1658758              31.7251
      -------------------------------------------------------------
                  HL-Gap            0.1282674 Eh            3.4903 eV

     #   Z        covCN         q      C6AA      Î±(0)
     1   6 C      3.685     0.101    19.103     6.258
     2   6 C      2.883    -0.147    31.767     9.240
     3   6 C      1.844     0.256    25.249     8.117
     4   8 O      1.776    -0.207    17.437     5.639
     5   8 O      1.733    -0.325    19.431     5.952
     6   8 O      0.856    -0.222    18.428     5.755
     7   1 H      0.805     0.322     0.657     1.274
     8   1 H      0.924     0.055     2.253     2.347
     9   1 H      0.924     0.075     2.035     2.231
    10   1 H      0.808     0.004     3.042     2.739
    11   1 H      0.926     0.092     1.858     2.132
    12   1 H      0.808    -0.004     3.187     2.804

Wiberg/Mayer (AO) data.
largest (>0.10) Wiberg bond orders for each atom
          total WBO             WBO to atom ...

molecular dipole:
                 x           y           z       tot (Debye)
 q only:       -0.460      -0.012      -0.509
   full:       -0.608       0.117      -0.545       2.098

           -------------------------------------------------
          | TOTAL ENERGY              -21.513236048619 Eh   |
          | GRADIENT NORM               0.000776180738 Eh/Î± |
          | HOMO-LUMO GAP               3.490333883707 eV   |
           -------------------------------------------------

 * finished run on 2020/12/23 at 21:42:08.267
