   * xtb version 6.2.3 (830e466) compiled by 'ehlert@majestix' on 2020-03-16
          program call               : xtb -c 0 -u 0 -a 1.0 --iterations 100 --opt normal --namespace product_10 /scratch/bell/zhao922/YARP/paper-example/potential_product/test/reaction_channel/pp_0/pp_15_0.xyz
          number of atoms            :                    12
          number of electrons        :                    36
          charge                     :                     0
          spin                       :                   0.0
          :  Hamiltonian                  GFN2-xTB          :
 * total energy  :   -21.6391126 Eh     change       -0.5574488E-08 Eh
 * total energy  :   -21.6437155 Eh     change       -0.4602885E-02 Eh
 * total energy  :   -21.6445011 Eh     change       -0.7856079E-03 Eh
 * total energy  :   -21.6449931 Eh     change       -0.4920308E-03 Eh
 * total energy  :   -21.6452330 Eh     change       -0.2399194E-03 Eh
 * total energy  :   -21.6455398 Eh     change       -0.3067632E-03 Eh
 * total energy  :   -21.6458345 Eh     change       -0.2946953E-03 Eh
 * total energy  :   -21.6461561 Eh     change       -0.3216318E-03 Eh
 * total energy  :   -21.6466719 Eh     change       -0.5158312E-03 Eh
 * total energy  :   -21.6469363 Eh     change       -0.2643098E-03 Eh
 * total energy  :   -21.6496418 Eh     change       -0.1089510E-03 Eh
 * total energy  :   -21.6497030 Eh     change       -0.6121262E-04 Eh
 * total energy  :   -21.6498198 Eh     change       -0.1167474E-03 Eh
 * total energy  :   -21.6498920 Eh     change       -0.7218604E-04 Eh
 * total energy  :   -21.6499339 Eh     change       -0.4191605E-04 Eh
 * total energy  :   -21.6498413 Eh     change        0.9258451E-04 Eh
 * total energy  :   -21.6499562 Eh     change       -0.1149287E-03 Eh
 * total energy  :   -21.6499636 Eh     change       -0.7365947E-05 Eh
 * total energy  :   -21.6499654 Eh     change       -0.1789513E-05 Eh
   *** GEOMETRY OPTIMIZATION CONVERGED AFTER 32 ITERATIONS ***

 final structure:
================
12
 xtb: 6.2.3 (830e466)
C         0.87080050968629    1.66899880940692   -2.06696576208987
C         0.67274764766803    0.78697139846042   -0.82787965944258
C         1.29131789726702   -0.56999920893069   -1.01116269145020
O         2.24810015306379    1.84966121230533   -2.22520731224606
O         0.20130928796037    2.88692730028531   -1.96424592893002
O         1.90265403083895   -1.16634010596230   -0.17490515659630
H         0.52748677920331    3.36142147171890   -1.18840872302851
H         2.41333578550547    2.41596351430777   -2.98835300579856
H         0.43211819911343    1.18116591126399   -2.95264965095027
H         1.11811040645946   -1.00048250785388   -2.01665840690526
H        -0.40001394160735    0.65533641105734   -0.66686280616572
H         1.11103324484119    1.26998579394090    0.04750910360333

          :  Hamiltonian                  GFN2-xTB          :
         :: total energy             -21.649965387091 Eh    ::
         :: gradient norm              0.000560636075 Eh/a0 ::
         :: HOMO-LUMO gap              3.889875185198 eV    ::
         :: SCC energy               -21.831010335934 Eh    ::
         :: -> dispersion             -0.005933462215 Eh    ::
         :: repulsion energy           0.181039007683 Eh    ::

    * Orbital Energies and Occupations

         #    Occupation            Energy/Eh            Energy/eV
      -------------------------------------------------------------
         1        2.0000           -0.7277296             -19.8025
       ...           ...                  ...                  ...
         6        2.0000           -0.6224477             -16.9377
         7        2.0000           -0.6069913             -16.5171
         8        2.0000           -0.5784923             -15.7416
         9        2.0000           -0.5759837             -15.6733
        10        2.0000           -0.5584994             -15.1975
        11        2.0000           -0.5485408             -14.9266
        12        2.0000           -0.5302494             -14.4288
        13        2.0000           -0.5234974             -14.2451
        14        2.0000           -0.4911188             -13.3640
        15        2.0000           -0.4761269             -12.9561
        16        2.0000           -0.4637992             -12.6206
        17        2.0000           -0.4464110             -12.1475
        18        2.0000           -0.4125807             -11.2269 (HOMO)
        19                         -0.2696304              -7.3370 (LUMO)
        20                          0.0333358               0.9071
        21                          0.0505622               1.3759
        22                          0.0858610               2.3364
        23                          0.0976481               2.6571
        24                          0.1141108               3.1051
        25                          0.1396692               3.8006
        26                          0.1738313               4.7302
        27                          0.2092152               5.6930
        28                          0.2379795               6.4758
        29                          0.2558091               6.9609
        30                          0.6191772              16.8487
      -------------------------------------------------------------
                  HL-Gap            0.1429503 Eh            3.8899 eV

     #   Z        covCN         q      C6AA      Î±(0)
     1   6 C      3.603     0.251    17.199     5.996
     2   6 C      3.802    -0.105    22.513     6.755
     3   6 C      2.758     0.222    23.328     7.909
     4   8 O      1.657    -0.453    21.900     6.317
     5   8 O      1.656    -0.450    21.836     6.308
     6   8 O      0.856    -0.303    19.828     5.970
     7   1 H      0.805     0.308     0.697     1.312
     8   1 H      0.805     0.308     0.698     1.313
     9   1 H      0.923     0.031     2.578     2.511
    10   1 H      0.922     0.024     2.668     2.554
    11   1 H      0.924     0.083     1.946     2.182
    12   1 H      0.924     0.083     1.945     2.181

Wiberg/Mayer (AO) data.
largest (>0.10) Wiberg bond orders for each atom
          total WBO             WBO to atom ...

molecular dipole:
                 x           y           z       tot (Debye)
 q only:       -0.463       0.715      -0.358
   full:       -0.544       0.897      -0.538       2.997

           -------------------------------------------------
          | TOTAL ENERGY              -21.649965387091 Eh   |
          | GRADIENT NORM               0.000560636075 Eh/Î± |
          | HOMO-LUMO GAP               3.889875185198 eV   |
           -------------------------------------------------

 * finished run on 2020/12/23 at 21:41:08.459
