   * xtb version 6.2.3 (830e466) compiled by 'ehlert@majestix' on 2020-03-16
          program call               : xtb -c 0 -u 0 -a 1.0 --iterations 100 --opt normal --namespace product_36 /scratch/bell/zhao922/YARP/paper-example/potential_product/test/reaction_channel/pp_0/pp_9_1.xyz
          number of atoms            :                    12
          number of electrons        :                    36
          charge                     :                     0
          spin                       :                   0.0
          :  Hamiltonian                  GFN2-xTB          :
 * total energy  :   -21.5475679 Eh     change       -0.1102208E-08 Eh
 * total energy  :   -21.5571600 Eh     change       -0.9592143E-02 Eh
 * total energy  :   -21.5589368 Eh     change       -0.1776764E-02 Eh
 * total energy  :   -21.5591003 Eh     change       -0.1634744E-03 Eh
 * total energy  :   -21.5592883 Eh     change       -0.1879980E-03 Eh
 * total energy  :   -21.5594449 Eh     change       -0.1565920E-03 Eh
 * total energy  :   -21.5595983 Eh     change       -0.1534425E-03 Eh
 * total energy  :   -21.5598244 Eh     change       -0.2260726E-03 Eh
 * total energy  :   -21.5600594 Eh     change       -0.2349691E-03 Eh
 * total energy  :   -21.5592449 Eh     change        0.8144817E-03 Eh
 * total energy  :   -21.5633172 Eh     change       -0.3207625E-04 Eh
 * total energy  :   -21.5633290 Eh     change       -0.1175510E-04 Eh
 * total energy  :   -21.5633405 Eh     change       -0.1156404E-04 Eh
 * total energy  :   -21.5633486 Eh     change       -0.8040285E-05 Eh
 * total energy  :   -21.5633561 Eh     change       -0.7480890E-05 Eh
 * total energy  :   -21.5633603 Eh     change       -0.4259895E-05 Eh
 * total energy  :   -21.5633614 Eh     change       -0.1113958E-05 Eh
 * total energy  :   -21.5633638 Eh     change       -0.2369830E-05 Eh
 * total energy  :   -21.5633648 Eh     change       -0.9594765E-06 Eh
   *** GEOMETRY OPTIMIZATION CONVERGED AFTER 36 ITERATIONS ***

 final structure:
================
12
 xtb: 6.2.3 (830e466)
C         2.14257554990298    1.13374177105445   -2.14520044619291
C         0.73002030763851    0.93007643964696   -1.58291778182229
C         0.67520760069163   -0.33878464401584   -0.75767428014909
O         0.31341872407089    1.99699134801616   -0.77053755072905
O         0.05215827176564    3.13451843631520   -1.59448929777814
O         0.30401124863161   -0.44219560567140    0.37124170232169
H        -0.32858737290648    3.75338225207810   -0.95827796977345
H         2.16427415883488    2.05776702596636   -2.71702350836948
H         2.41367300428119    0.30550135119698   -2.79292981292445
H         1.04309764375505   -1.20897454508326   -1.33870661880466
H         0.02120224214236    0.80939220540754   -2.41943352601485
H         2.85794862119176    1.20817396508876   -1.32985090976333

          :  Hamiltonian                  GFN2-xTB          :
         :: total energy             -21.563364760628 Eh    ::
         :: gradient norm              0.000447872067 Eh/a0 ::
         :: HOMO-LUMO gap              3.711749940683 eV    ::
         :: SCC energy               -21.738812496852 Eh    ::
         :: -> dispersion             -0.005959690440 Eh    ::
         :: repulsion energy           0.175438903540 Eh    ::

    * Orbital Energies and Occupations

         #    Occupation            Energy/Eh            Energy/eV
      -------------------------------------------------------------
         1        2.0000           -0.7351495             -20.0044
       ...           ...                  ...                  ...
         6        2.0000           -0.6213287             -16.9072
         7        2.0000           -0.6133146             -16.6891
         8        2.0000           -0.5874251             -15.9847
         9        2.0000           -0.5649125             -15.3721
        10        2.0000           -0.5606191             -15.2552
        11        2.0000           -0.5500779             -14.9684
        12        2.0000           -0.5375699             -14.6280
        13        2.0000           -0.5152028             -14.0194
        14        2.0000           -0.4925346             -13.4025
        15        2.0000           -0.4871216             -13.2553
        16        2.0000           -0.4738579             -12.8943
        17        2.0000           -0.4227325             -11.5031
        18        2.0000           -0.4142382             -11.2720 (HOMO)
        19                         -0.2778339              -7.5602 (LUMO)
        20                         -0.1633728              -4.4456
        21                          0.0550472               1.4979
        22                          0.0805638               2.1923
        23                          0.0916668               2.4944
        24                          0.1256338               3.4187
        25                          0.1452615               3.9528
        26                          0.1600563               4.3554
        27                          0.1946639               5.2971
        28                          0.2309795               6.2853
        29                          0.2497851               6.7970
        30                          0.6247059              16.9991
      -------------------------------------------------------------
                  HL-Gap            0.1364043 Eh            3.7117 eV

     #   Z        covCN         q      C6AA      Î±(0)
     1   6 C      3.753    -0.119    22.847     6.816
     2   6 C      3.727     0.105    18.944     6.214
     3   6 C      2.758     0.207    23.610     7.957
     4   8 O      1.777    -0.195    17.248     5.608
     5   8 O      1.733    -0.325    19.424     5.951
     6   8 O      0.856    -0.281    19.448     5.913
     7   1 H      0.805     0.325     0.649     1.266
     8   1 H      0.925     0.076     2.025     2.225
     9   1 H      0.925     0.048     2.341     2.393
    10   1 H      0.922     0.032     2.554     2.499
    11   1 H      0.923     0.067     2.114     2.274
    12   1 H      0.925     0.060     2.201     2.320

Wiberg/Mayer (AO) data.
largest (>0.10) Wiberg bond orders for each atom
          total WBO             WBO to atom ...

molecular dipole:
                 x           y           z       tot (Debye)
 q only:        0.333       0.166      -0.834
   full:        0.314       0.204      -0.961       2.622

           -------------------------------------------------
          | TOTAL ENERGY              -21.563364760628 Eh   |
          | GRADIENT NORM               0.000447872067 Eh/Î± |
          | HOMO-LUMO GAP               3.711749940683 eV   |
           -------------------------------------------------

 * finished run on 2020/12/23 at 21:43:50.067
