   * xtb version 6.2.3 (830e466) compiled by 'ehlert@majestix' on 2020-03-16
          program call               : xtb -c 0 -u 0 -a 1.0 --iterations 100 --opt normal --namespace product_13 /scratch/bell/zhao922/YARP/paper-example/potential_product/test/reaction_channel/pp_0/pp_17_0.xyz
          number of atoms            :                    12
          number of electrons        :                    36
          charge                     :                     0
          spin                       :                   0.0
          :  Hamiltonian                  GFN2-xTB          :
 * total energy  :   -21.6560838 Eh     change        0.1094253E-07 Eh
 * total energy  :   -21.6642213 Eh     change       -0.8137489E-02 Eh
 * total energy  :   -21.6664406 Eh     change       -0.2219293E-02 Eh
 * total energy  :   -21.6659619 Eh     change        0.4787505E-03 Eh
 * total energy  :   -21.6669860 Eh     change       -0.1024089E-02 Eh
 * total energy  :   -21.6670542 Eh     change       -0.6823830E-04 Eh
 * total energy  :   -21.6671642 Eh     change       -0.1100105E-03 Eh
 * total energy  :   -21.6672053 Eh     change       -0.4107256E-04 Eh
 * total energy  :   -21.6672452 Eh     change       -0.3995036E-04 Eh
 * total energy  :   -21.6672641 Eh     change       -0.1888028E-04 Eh
 * total energy  :   -21.6672640 Eh     change        0.1125085E-06 Eh
 * total energy  :   -21.6672786 Eh     change       -0.1455939E-04 Eh
 * total energy  :   -21.6672839 Eh     change       -0.5326024E-05 Eh
 * total energy  :   -21.6672886 Eh     change       -0.4702455E-05 Eh
 * total energy  :   -21.6672911 Eh     change       -0.2520113E-05 Eh
   *** GEOMETRY OPTIMIZATION CONVERGED AFTER 15 ITERATIONS ***

 final structure:
================
12
 xtb: 6.2.3 (830e466)
C         1.25605536355166    1.20089699095024   -2.22496325394782
C         0.23903590872746    1.98769234863214   -1.38307410856027
C         1.60369863928824   -0.80469943440561   -1.06241875882433
O         1.04459563431613   -0.20566698072907   -2.09975006673804
O         0.39328411887012    3.37147797914570   -1.54024112041259
O         2.28304885349612   -0.29494073604461   -0.22189582528361
H         1.24203814050832    3.64149282399424   -1.17024403699215
H         2.27536655419243    1.44172214776236   -1.90002309755231
H         1.13499837328071    1.43486314192660   -3.28396496773858
H         1.35218257104791   -1.87750649455105   -1.09794067097379
H        -0.77357675472124    1.75388807491217   -1.72121008087091
H         0.33827259744210    1.69037013840689   -0.33007401210560

          :  Hamiltonian                  GFN2-xTB          :
         :: total energy             -21.667291102852 Eh    ::
         :: gradient norm              0.000886403806 Eh/a0 ::
         :: HOMO-LUMO gap              4.871790779884 eV    ::
         :: SCC energy               -21.845987157410 Eh    ::
         :: -> dispersion             -0.005867615030 Eh    ::
         :: repulsion energy           0.178691760771 Eh    ::

    * Orbital Energies and Occupations

         #    Occupation            Energy/Eh            Energy/eV
      -------------------------------------------------------------
         1        2.0000           -0.7661709             -20.8486
       ...           ...                  ...                  ...
         6        2.0000           -0.6264212             -17.0458
         7        2.0000           -0.6110476             -16.6275
         8        2.0000           -0.6066821             -16.5087
         9        2.0000           -0.5861464             -15.9499
        10        2.0000           -0.5737944             -15.6137
        11        2.0000           -0.5452323             -14.8365
        12        2.0000           -0.5347521             -14.5513
        13        2.0000           -0.5245645             -14.2741
        14        2.0000           -0.4961624             -13.5013
        15        2.0000           -0.4871375             -13.2557
        16        2.0000           -0.4606645             -12.5353
        17        2.0000           -0.4407726             -11.9940
        18        2.0000           -0.4310249             -11.7288 (HOMO)
        19                         -0.2519899              -6.8570 (LUMO)
        20                         -0.0241827              -0.6580
        21                          0.0730221               1.9870
        22                          0.0838370               2.2813
        23                          0.1092198               2.9720
        24                          0.1310890               3.5671
        25                          0.1548833               4.2146
        26                          0.1586078               4.3159
        27                          0.1903378               5.1794
        28                          0.2407376               6.5508
        29                          0.2812262               7.6526
        30                          0.6403255              17.4241
      -------------------------------------------------------------
                  HL-Gap            0.1790350 Eh            4.8718 eV

     #   Z        covCN         q      C6AA      Î±(0)
     1   6 C      3.704     0.058    19.755     6.355
     2   6 C      3.673     0.073    19.593     6.344
     3   6 C      2.666     0.337    21.280     7.548
     4   8 O      1.703    -0.243    18.032     5.733
     5   8 O      1.656    -0.429    21.412     6.247
     6   8 O      0.856    -0.373    21.159     6.167
     7   1 H      0.805     0.296     0.733     1.345
     8   1 H      0.924     0.063     2.161     2.299
     9   1 H      0.924     0.076     2.022     2.224
    10   1 H      0.923     0.036     2.503     2.474
    11   1 H      0.924     0.066     2.127     2.281
    12   1 H      0.923     0.041     2.438     2.442

Wiberg/Mayer (AO) data.
largest (>0.10) Wiberg bond orders for each atom
          total WBO             WBO to atom ...

molecular dipole:
                 x           y           z       tot (Debye)
 q only:       -0.069       0.101      -0.407
   full:        0.060      -0.105      -0.391       1.039

           -------------------------------------------------
          | TOTAL ENERGY              -21.667291102852 Eh   |
          | GRADIENT NORM               0.000886403806 Eh/Î± |
          | HOMO-LUMO GAP               4.871790779884 eV   |
           -------------------------------------------------

 * finished run on 2020/12/23 at 21:41:25.268
