   * xtb version 6.2.3 (830e466) compiled by 'ehlert@majestix' on 2020-03-16
          program call               : xtb -c 0 -u 0 -a 1.0 --iterations 100 --opt normal --namespace product_18 /scratch/bell/zhao922/YARP/paper-example/potential_product/test/reaction_channel/pp_0/pp_20_0.xyz
          number of atoms            :                    12
          number of electrons        :                    36
          charge                     :                     0
          spin                       :                   0.0
          :  Hamiltonian                  GFN2-xTB          :
 * total energy  :   -21.4898181 Eh     change       -0.8143253E-08 Eh
 * total energy  :   -21.5035575 Eh     change       -0.1373937E-01 Eh
 * total energy  :   -21.5062628 Eh     change       -0.2705252E-02 Eh
 * total energy  :   -21.5075930 Eh     change       -0.1330226E-02 Eh
 * total energy  :   -21.5082059 Eh     change       -0.6128569E-03 Eh
 * total energy  :   -21.5085937 Eh     change       -0.3878094E-03 Eh
 * total energy  :   -21.5087945 Eh     change       -0.2008488E-03 Eh
 * total energy  :   -21.5089486 Eh     change       -0.1540968E-03 Eh
 * total energy  :   -21.5090269 Eh     change       -0.7830404E-04 Eh
 * total energy  :   -21.5090669 Eh     change       -0.4001897E-04 Eh
 * total energy  :   -21.5136311 Eh     change       -0.1528348E-04 Eh
 * total energy  :   -21.5136418 Eh     change       -0.1071790E-04 Eh
 * total energy  :   -21.5136497 Eh     change       -0.7880823E-05 Eh
 * total energy  :   -21.5136560 Eh     change       -0.6278885E-05 Eh
 * total energy  :   -21.5136614 Eh     change       -0.5435292E-05 Eh
 * total energy  :   -21.5136600 Eh     change        0.1424354E-05 Eh
 * total energy  :   -21.5136709 Eh     change       -0.1089645E-04 Eh
 * total energy  :   -21.5136774 Eh     change       -0.6464477E-05 Eh
 * total energy  :   -21.5136803 Eh     change       -0.2989360E-05 Eh
   *** GEOMETRY OPTIMIZATION CONVERGED AFTER 69 ITERATIONS ***

 final structure:
================
12
 xtb: 6.2.3 (830e466)
C         0.81472286696144    1.51097638307086   -2.21370205783939
C         0.71659278195632    0.87410359531307   -0.84654416704235
C         1.76407964101807    0.58570814319978   -0.14022260093900
O         0.84804883981948    2.91649953643257   -2.16647329494758
O         2.12079219212011    3.33932383523988   -1.67778433808435
O         2.70449751151073    0.27195131103333    0.46312975153393
H         1.95143204947825    4.25647105673982   -1.42595611001657
H         1.69680673090073    1.14088827075040   -2.74862687802610
H        -0.08746923155620    1.30396653850644   -2.79320967169092
H        -0.08184048575942   -2.17604606170444   -2.20118679700701
H         0.19649452564071   -1.51198852449648   -1.89959910160606
H        -0.25516742208049    0.82774591591957   -0.38563473435255

          :  Hamiltonian                  GFN2-xTB          :
         :: total energy             -21.513680355560 Eh    ::
         :: gradient norm              0.000954987364 Eh/a0 ::
         :: HOMO-LUMO gap              3.480153512307 eV    ::
         :: SCC energy               -21.750563408299 Eh    ::
         :: -> dispersion             -0.005812834584 Eh    ::
         :: repulsion energy           0.236874607852 Eh    ::

    * Orbital Energies and Occupations

         #    Occupation            Energy/Eh            Energy/eV
      -------------------------------------------------------------
         1        2.0000           -0.7525383             -20.4776
       ...           ...                  ...                  ...
         6        2.0000           -0.6186292             -16.8338
         7        2.0000           -0.5990929             -16.3021
         8        2.0000           -0.5842540             -15.8984
         9        2.0000           -0.5810690             -15.8117
        10        2.0000           -0.5709348             -15.5359
        11        2.0000           -0.5608029             -15.2602
        12        2.0000           -0.5341045             -14.5337
        13        2.0000           -0.5095612             -13.8659
        14        2.0000           -0.4953046             -13.4779
        15        2.0000           -0.4761057             -12.9555
        16        2.0000           -0.4692121             -12.7679
        17        2.0000           -0.4209584             -11.4549
        18        2.0000           -0.3927350             -10.6869 (HOMO)
        19                         -0.2648417              -7.2067 (LUMO)
        20                         -0.1804290              -4.9097
        21                         -0.1550987              -4.2205
        22                          0.0790583               2.1513
        23                          0.1011229               2.7517
        24                          0.1183728               3.2211
        25                          0.1306445               3.5550
        26                          0.1664988               4.5307
        27                          0.1711456               4.6571
        28                          0.2793083               7.6004
        29                          0.3715229              10.1097
        30                          1.1649394              31.6996
      -------------------------------------------------------------
                  HL-Gap            0.1278933 Eh            3.4802 eV

     #   Z        covCN         q      C6AA      Î±(0)
     1   6 C      3.684     0.102    19.090     6.256
     2   6 C      2.883    -0.144    31.692     9.229
     3   6 C      1.843     0.255    25.273     8.121
     4   8 O      1.777    -0.208    17.441     5.639
     5   8 O      1.734    -0.325    19.420     5.950
     6   8 O      0.856    -0.221    18.409     5.752
     7   1 H      0.805     0.322     0.658     1.274
     8   1 H      0.924     0.056     2.242     2.342
     9   1 H      0.924     0.075     2.029     2.228
    10   1 H      0.801    -0.001     3.134     2.781
    11   1 H      0.801    -0.004     3.178     2.801
    12   1 H      0.926     0.091     1.868     2.137

Wiberg/Mayer (AO) data.
largest (>0.10) Wiberg bond orders for each atom
          total WBO             WBO to atom ...

molecular dipole:
                 x           y           z       tot (Debye)
 q only:       -0.639       0.084      -0.185
   full:       -0.749       0.249      -0.172       2.052

           -------------------------------------------------
          | TOTAL ENERGY              -21.513680355560 Eh   |
          | GRADIENT NORM               0.000954987364 Eh/Î± |
          | HOMO-LUMO GAP               3.480153512307 eV   |
           -------------------------------------------------

 * finished run on 2020/12/23 at 21:42:01.265
