   * xtb version 6.2.3 (830e466) compiled by 'ehlert@majestix' on 2020-03-16
          program call               : xtb -c 0 -u 0 -a 1.0 --iterations 100 --opt normal --namespace reactant /scratch/bell/zhao922/YARP/paper-example/KHP-network/pp_0/xTB-folder/opt-reactant.xyz
          number of atoms            :                    12
          number of electrons        :                    36
          charge                     :                     0
          spin                       :                   0.0
          :  Hamiltonian                  GFN2-xTB          :
 * total energy  :   -21.3759193 Eh     change       -0.1852914E-08 Eh
 * total energy  :   -21.4240913 Eh     change       -0.4817203E-01 Eh
 * total energy  :   -21.4731211 Eh     change       -0.4902980E-01 Eh
 * total energy  :   -21.4928950 Eh     change       -0.1977386E-01 Eh
 * total energy  :   -21.5248853 Eh     change       -0.3199031E-01 Eh
 * total energy  :   -21.5472962 Eh     change       -0.2241088E-01 Eh
 * total energy  :   -21.5561880 Eh     change       -0.8891853E-02 Eh
 * total energy  :   -21.5572904 Eh     change       -0.1102399E-02 Eh
 * total energy  :   -21.5604965 Eh     change       -0.3206095E-02 Eh
 * total energy  :   -21.5610382 Eh     change       -0.5417090E-03 Eh
 * total energy  :   -21.5649815 Eh     change       -0.8801449E-05 Eh
 * total energy  :   -21.5649850 Eh     change       -0.3547874E-05 Eh
 * total energy  :   -21.5649908 Eh     change       -0.5810509E-05 Eh
 * total energy  :   -21.5649984 Eh     change       -0.7609462E-05 Eh
 * total energy  :   -21.5650079 Eh     change       -0.9467477E-05 Eh
 * total energy  :   -21.5650141 Eh     change       -0.6200222E-05 Eh
 * total energy  :   -21.5650153 Eh     change       -0.1246760E-05 Eh
 * total energy  :   -21.5650212 Eh     change       -0.5811097E-05 Eh
 * total energy  :   -21.5650228 Eh     change       -0.1632819E-05 Eh
   *** GEOMETRY OPTIMIZATION CONVERGED AFTER 47 ITERATIONS ***

 final structure:
================
12
 xtb: 6.2.3 (830e466)
C         0.64655261294670    1.77990726095684   -1.24860629964234
C         0.38702690585649    0.27760346588115   -1.18023452412354
C         1.65742853794295   -0.51360174351141   -1.02233854444723
O         1.27812269897433    2.02818304481236   -2.48376416295117
O         1.58563118664340    3.41930490509654   -2.56626752396012
O         1.77168318814255   -1.50049345051658   -0.35445652126102
H         1.93430464292852    3.49691603900725   -3.46387210572422
H         1.29400504502879    2.10886293932979   -0.42567893328116
H        -0.29823351789123    2.33620594028066   -1.19575566947404
H         2.50297716675169   -0.10413581498027   -1.60437530795367
H        -0.06972912899475   -0.03548682651369   -2.12373324716380
H        -0.30086933832936    0.04642424015730   -0.36672716001753

          :  Hamiltonian                  GFN2-xTB          :
         :: total energy             -21.565022781305 Eh    ::
         :: gradient norm              0.000206971219 Eh/a0 ::
         :: HOMO-LUMO gap              3.738388224569 eV    ::
         :: SCC energy               -21.738525363753 Eh    ::
         :: -> dispersion             -0.005629683959 Eh    ::
         :: repulsion energy           0.173498557070 Eh    ::

    * Orbital Energies and Occupations

         #    Occupation            Energy/Eh            Energy/eV
      -------------------------------------------------------------
         1        2.0000           -0.7354398             -20.0123
       ...           ...                  ...                  ...
         6        2.0000           -0.6200914             -16.8735
         7        2.0000           -0.6080686             -16.5464
         8        2.0000           -0.5847136             -15.9109
         9        2.0000           -0.5818364             -15.8326
        10        2.0000           -0.5608630             -15.2619
        11        2.0000           -0.5496142             -14.9558
        12        2.0000           -0.5348344             -14.5536
        13        2.0000           -0.5172314             -14.0746
        14        2.0000           -0.4974127             -13.5353
        15        2.0000           -0.4910241             -13.3614
        16        2.0000           -0.4804748             -13.0744
        17        2.0000           -0.4249526             -11.5635
        18        2.0000           -0.4090301             -11.1303 (HOMO)
        19                         -0.2716468              -7.3919 (LUMO)
        20                         -0.1642957              -4.4707
        21                          0.0527435               1.4352
        22                          0.0835971               2.2748
        23                          0.0924569               2.5159
        24                          0.1238856               3.3711
        25                          0.1320842               3.5942
        26                          0.1414775               3.8498
        27                          0.1999042               5.4397
        28                          0.2236052               6.0846
        29                          0.2501747               6.8076
        30                          0.6117960              16.6478
      -------------------------------------------------------------
                  HL-Gap            0.1373832 Eh            3.7384 eV

     #   Z        covCN         q      C6AA      Î±(0)
     1   6 C      3.678     0.087    19.344     6.300
     2   6 C      3.802    -0.094    22.290     6.722
     3   6 C      2.758     0.216    23.434     7.927
     4   8 O      1.778    -0.213    17.531     5.654
     5   8 O      1.735    -0.324    19.408     5.948
     6   8 O      0.856    -0.311    19.978     5.993
     7   1 H      0.805     0.324     0.654     1.271
     8   1 H      0.924     0.051     2.305     2.374
     9   1 H      0.924     0.053     2.283     2.363
    10   1 H      0.922     0.038     2.472     2.459
    11   1 H      0.924     0.092     1.855     2.130
    12   1 H      0.925     0.080     1.974     2.197

Wiberg/Mayer (AO) data.
largest (>0.10) Wiberg bond orders for each atom
          total WBO             WBO to atom ...

molecular dipole:
                 x           y           z       tot (Debye)
 q only:       -0.411       0.573      -0.454
   full:       -0.398       0.769      -0.685       2.806

           -------------------------------------------------
          | TOTAL ENERGY              -21.565022781305 Eh   |
          | GRADIENT NORM               0.000206971219 Eh/Î± |
          | HOMO-LUMO GAP               3.738388224569 eV   |
           -------------------------------------------------

 * finished run on 2020/12/23 at 21:44:06.661
