                         Program Version 5.0.1 -  RELEASE  -
|  1> ! B97-3c Opt Freq tightscf
|  2>
|  3> %scf
|  4> smeartemp 5000
|  5> end
|  6>
|  7> %pal
|  8> nproc 4
|  9> end
| 10>
| 11> %maxcore 4000
| 12>
| 13> %base "XSASRUDTFFBDDK-UHFFFAOYSA-N"
| 14>
| 15> * xyz 0 1
| 16>   O   -0.89738471       1.29692524      -0.22437532
| 17>   O   -1.56302948       0.17921955       0.35057654
| 18>   C   -1.04880282      -0.99974914      -0.20897618
| 19>   C    0.42057336      -1.22232353       0.16926079
| 20>   C    1.27735402      -0.11352258      -0.38481842
| 21>   O    2.04362896       0.54694936       0.25807217
| 22>   H   -0.71508267       1.86967202       0.53390010
| 23>   H   -1.68756019      -1.77842524       0.21295082
| 24>   H   -1.16191307      -0.97968672      -1.30025754
| 25>   H    0.75448917      -2.16496837      -0.26702786
| 26>   H    0.53223665      -1.26290037       1.25413929
| 27>   H    1.15835247       0.03467558      -1.47455020
| 28> *
| 29>
| 30>                          ****END OF INPUT****
 Total Charge           Charge          ....    0
 Multiplicity           Mult            ....    1
 Number of Electrons    NEL             ....   48
Dispersion correction           -0.019259072
FINAL SINGLE POINT ENERGY      -343.344378972370
Dispersion correction            ... done
Dispersion correction           -0.018898539
FINAL SINGLE POINT ENERGY      -343.347404764012
Dispersion correction            ... done
Dispersion correction           -0.019052771
FINAL SINGLE POINT ENERGY      -343.347772610844
Dispersion correction            ... done
FINAL SINGLE POINT ENERGY      -343.348439451074
FINAL SINGLE POINT ENERGY      -343.348465008448
Dispersion correction           -0.019115138
FINAL SINGLE POINT ENERGY      -343.348471882511
Dispersion correction            ... done
Dispersion correction           -0.019113571
FINAL SINGLE POINT ENERGY      -343.348473736537
Dispersion correction            ... done
                    ***********************HURRAY********************

CARTESIAN COORDINATES (ANGSTROEM)
---------------------------------
  O     -1.055751    1.327847   -0.231147
  O     -1.659539    0.153622    0.400167
  C     -1.057467   -0.978103   -0.205865
  C      0.402348   -1.165833    0.176309
  C      1.311640   -0.116989   -0.397414
  O      2.094955    0.542057    0.251206
  H     -0.579548    1.710239    0.523458
  H     -1.658740   -1.807207    0.169919
  H     -1.182769   -0.932395   -1.291096
  H      0.725245   -2.128556   -0.235064
  H      0.524037   -1.201765    1.257297
  H      1.248451    0.002948   -1.498876

 Multiplicity           Mult            ....    1
 Number of Electrons    NEL             ....   48
 Basis Dimension        Dim             ....  147

ORBITAL ENERGIES
----------------

  NO   OCC          E(Eh)            E(eV)
   0   2.0000     -18.818317      -512.0724
   1   2.0000     -18.812989      -511.9275
   2   2.0000     -18.746336      -510.1137
   3   2.0000      -9.984420      -271.6899
   4   2.0000      -9.964442      -271.1463
   5   2.0000      -9.915343      -269.8102
   6   2.0000      -1.046924       -28.4883
   7   2.0000      -0.970491       -26.4084
   8   2.0000      -0.859892       -23.3988
   9   2.0000      -0.724777       -19.7222
  10   2.0000      -0.603268       -16.4158
  11   2.0000      -0.532697       -14.4954
  12   2.0000      -0.502976       -13.6867
  13   2.0000      -0.454118       -12.3572
  14   2.0000      -0.434367       -11.8197
  15   2.0000      -0.414509       -11.2794
  16   2.0000      -0.410349       -11.1662
  17   2.0000      -0.375898       -10.2287
  18   2.0000      -0.352774        -9.5995
  19   2.0000      -0.351498        -9.5648
  20   2.0000      -0.333297        -9.0695
  21   1.9996      -0.276294        -7.5183
  22   1.9941      -0.234012        -6.3678
  23   1.9840      -0.218177        -5.9369
  24   0.0168      -0.066338        -1.8052
  25   0.0054      -0.048205        -1.3117
  26   0.0001       0.018745         0.5101
  27   0.0000       0.040531         1.1029
  28   0.0000       0.054363         1.4793
  29   0.0000       0.067279         1.8308
  30   0.0000       0.079097         2.1524
  31   0.0000       0.088525         2.4089

LOEWDIN ATOMIC CHARGES
----------------------
   0 O :   -0.345965
   1 O :   -0.473537
   2 C :    0.049003
   3 C :   -0.257278
   4 C :    0.212448
   5 O :   -0.461901
   6 H :    0.382530
   7 H :    0.195733
   8 H :    0.180807
   9 H :    0.184189
  10 H :    0.183131
  11 H :    0.150841

  Mayer bond orders larger than 0.100000
B(  0-O ,  1-O ) :   0.9577 B(  0-O ,  6-H ) :   0.7642 B(  1-O ,  2-C ) :   0.9368
B(  2-C ,  3-C ) :   0.9484 B(  2-C ,  7-H ) :   0.9366 B(  2-C ,  8-H ) :   0.9416
B(  3-C ,  4-C ) :   0.9059 B(  3-C ,  9-H ) :   0.9085 B(  3-C , 10-H ) :   0.9267
B(  4-C ,  5-O ) :   2.0797 B(  4-C , 11-H ) :   0.9029

Dispersion correction           -0.019112675
FINAL SINGLE POINT ENERGY      -343.348474178318

DIPOLE MOMENT
-------------
                                X             Y             Z
Electronic contribution:      0.38793       3.17011       0.84485
Nuclear contribution   :     -0.68835      -4.10954      -1.03397
                        -----------------------------------------
Total Dipole Moment    :     -0.30042      -0.93942      -0.18912
                        -----------------------------------------
Magnitude (a.u.)       :      1.00426
Magnitude (Debye)      :      2.55263

Dispersion correction in the Hessian             ... done   (      0.8 sec)

VIBRATIONAL FREQUENCIES
-----------------------

Scaling factor for frequencies =  1.000000000  (already applied!)

   0:         0.00 cm**-1
   1:         0.00 cm**-1
   2:         0.00 cm**-1
   3:         0.00 cm**-1
   4:         0.00 cm**-1
   5:         0.00 cm**-1
   6:     -7963.94 cm**-1 ***imaginary mode***
   7:     -7441.08 cm**-1 ***imaginary mode***
   8:     -7286.13 cm**-1 ***imaginary mode***
   9:     -6763.54 cm**-1 ***imaginary mode***
  10:     -5991.39 cm**-1 ***imaginary mode***
  11:     -5427.97 cm**-1 ***imaginary mode***
  12:     -5040.81 cm**-1 ***imaginary mode***
  13:     -4545.60 cm**-1 ***imaginary mode***
  14:     -4446.69 cm**-1 ***imaginary mode***
  15:     -4348.04 cm**-1 ***imaginary mode***
  16:     -3903.43 cm**-1 ***imaginary mode***
  17:     -3785.81 cm**-1 ***imaginary mode***
  18:     -3376.75 cm**-1 ***imaginary mode***
  19:     -3097.98 cm**-1 ***imaginary mode***
  20:     -2849.31 cm**-1 ***imaginary mode***
  21:     -2730.20 cm**-1 ***imaginary mode***
  22:     -2531.85 cm**-1 ***imaginary mode***
  23:     -2335.48 cm**-1 ***imaginary mode***
  24:     -1931.70 cm**-1 ***imaginary mode***
  25:     -1883.08 cm**-1 ***imaginary mode***
  26:     -1552.79 cm**-1 ***imaginary mode***
  27:     -1456.18 cm**-1 ***imaginary mode***
  28:     -1239.53 cm**-1 ***imaginary mode***
  29:     -1035.52 cm**-1 ***imaginary mode***
  30:      -897.09 cm**-1 ***imaginary mode***
  31:      -741.38 cm**-1 ***imaginary mode***
  32:      -532.13 cm**-1 ***imaginary mode***
  33:        56.88 cm**-1
  34:       995.27 cm**-1
  35:      1550.62 cm**-1

IR SPECTRUM
-----------

 Mode   freq       eps      Int      T**2         TX        TY        TZ
       cm**-1   L/(mol*cm) km/mol    a.u.
----------------------------------------------------------------------------
 33:     56.88   0.152315  769.74  0.835724  ( 0.734324 -0.079306 -0.538705)
 34:    995.27   2.195979  11097.58  0.688542  ( 0.828549  0.042323  0.016047)
 35:   1550.62   12.144406  61372.85  2.444065  (-1.330178 -0.323972 -0.754806)

--------------------------
THERMOCHEMISTRY AT 298.15K
--------------------------

Temperature         ... 298.15 K
Pressure            ... 1.00 atm
Total Mass          ... 90.08 AMU

Throughout the following assumptions are being made:
  (1) The electronic state is orbitally nondegenerate
  (2) There are no thermally accessible electronically excited states
  (3) Hindered rotations indicated by low frequency modes are not
      treated as such but are treated as vibrations and this may
      cause some error
  (4) All equations used are the standard statistical mechanics
      equations for an ideal gas
  (5) All vibrations are strictly harmonic

freq.      56.88  E(vib)   ...       0.51
freq.     995.27  E(vib)   ...       0.02
freq.    1550.62  E(vib)   ...       0.00

------------
INNER ENERGY
------------

The inner energy is: U= E(el) + E(ZPE) + E(vib) + E(rot) + E(trans)
    E(el)   - is the total energy from the electronic structure calculation
              = E(kin-el) + E(nuc-el) + E(el-el) + E(nuc-nuc)
    E(ZPE)  - the the zero temperature vibrational energy from the frequency calculation
    E(vib)  - the the finite temperature correction to E(ZPE) due to population
              of excited vibrational states
    E(rot)  - is the rotational thermal energy
    E(trans)- is the translational thermal energy

Summary of contributions to the inner energy U:
Electronic energy                ...   -343.34847418 Eh
Zero point energy                ...      0.00592955 Eh       3.72 kcal/mol
Thermal vibrational correction   ...      0.00086206 Eh       0.54 kcal/mol
Thermal rotational correction    ...      0.00141627 Eh       0.89 kcal/mol
Thermal translational correction ...      0.00141627 Eh       0.89 kcal/mol
-----------------------------------------------------------------------
Total thermal energy                   -343.33885003 Eh

Summary of corrections to the electronic energy:
(perhaps to be used in another calculation)
Total thermal correction                  0.00369460 Eh       2.32 kcal/mol
Non-thermal (ZPE) correction              0.00592955 Eh       3.72 kcal/mol
-----------------------------------------------------------------------
Total correction                          0.00962415 Eh       6.04 kcal/mol

--------
ENTHALPY
--------

The enthalpy is H = U + kB*T
                kB is Boltzmann's constant
Total free energy                 ...   -343.33885003 Eh
Thermal Enthalpy correction       ...      0.00094421 Eh       0.59 kcal/mol
-----------------------------------------------------------------------
Total Enthalpy                    ...   -343.33790582 Eh

Note: Only C1 symmetry has been detected, increase convergence thresholds
      if your molecule has a higher symmetry. Symmetry factor of 1.0 is
      used for the rotational entropy correction.

Note: Rotational entropy computed according to Herzberg
Infrared and Raman Spectra, Chapter V,1, Van Nostrand Reinhold, 1945
Point Group:  C1, Symmetry Number:   1
Rotational constants in cm-1:     0.192814     0.089616     0.067601

Vibrational entropy computed according to the QRRHO of S. Grimme
Chem.Eur.J. 2012 18 9955

-------
ENTROPY
-------

The entropy contributions are T*S = T*(S(el)+S(vib)+S(rot)+S(trans))
     S(el)   - electronic entropy
     S(vib)  - vibrational entropy
     S(rot)  - rotational entropy
     S(trans)- translational entropy
The entropies will be listed as multiplied by the temperature to get
units of energy

Electronic entropy                ...      0.00000000 Eh      0.00 kcal/mol
Vibrational entropy               ...      0.00172446 Eh      1.08 kcal/mol
Rotational entropy                ...      0.01269855 Eh      7.97 kcal/mol
Translational entropy             ...      0.01872325 Eh     11.75 kcal/mol
-----------------------------------------------------------------------
Final entropy term                ...      0.03314626 Eh     20.80 kcal/mol

In case the symmetry of your molecule has not been determined correctly
or in case you have a reason to use a different symmetry number we print
out the resulting rotational entropy values for sn=1,12 :
 --------------------------------------------------------
|  sn= 1 | S(rot)=       0.01269855 Eh      7.97 kcal/mol|
|  sn= 2 | S(rot)=       0.01204409 Eh      7.56 kcal/mol|
|  sn= 3 | S(rot)=       0.01166126 Eh      7.32 kcal/mol|
|  sn= 4 | S(rot)=       0.01138964 Eh      7.15 kcal/mol|
|  sn= 5 | S(rot)=       0.01117895 Eh      7.01 kcal/mol|
|  sn= 6 | S(rot)=       0.01100680 Eh      6.91 kcal/mol|
|  sn= 7 | S(rot)=       0.01086126 Eh      6.82 kcal/mol|
|  sn= 8 | S(rot)=       0.01073518 Eh      6.74 kcal/mol|
|  sn= 9 | S(rot)=       0.01062397 Eh      6.67 kcal/mol|
|  sn=10 | S(rot)=       0.01052449 Eh      6.60 kcal/mol|
|  sn=11 | S(rot)=       0.01043450 Eh      6.55 kcal/mol|
|  sn=12 | S(rot)=       0.01035235 Eh      6.50 kcal/mol|
 --------------------------------------------------------

-------------------
GIBBS FREE ENERGY
-------------------

The Gibbs free energy is G = H - T*S

Total enthalpy                    ...   -343.33790582 Eh
Total entropy correction          ...     -0.03314626 Eh    -20.80 kcal/mol
-----------------------------------------------------------------------
Final Gibbs free energy         ...   -343.37105208 Eh

For completeness - the Gibbs free energy minus the electronic energy
G-E(el)                           ...     -0.02257790 Eh    -14.17 kcal/mol

                             ****ORCA TERMINATED NORMALLY****
TOTAL RUN TIME: 0 days 0 hours 2 minutes 43 seconds 557 msec
