                         Program Version 5.0.1 -  RELEASE  -
|  1> ! B97-3c Opt Freq tightscf
|  2>
|  3> %pal
|  4> nproc 4
|  5> end
|  6>
|  7> %maxcore 4000
|  8>
|  9> %base "XSASRUDTFFBDDK-UHFFFAOYSA-N"
| 10>
| 11> * xyz 0 1
| 12>   O   -0.89738471       1.29692524      -0.22437532
| 13>   O   -1.56302948       0.17921955       0.35057654
| 14>   C   -1.04880282      -0.99974914      -0.20897618
| 15>   C    0.42057336      -1.22232353       0.16926079
| 16>   C    1.27735402      -0.11352258      -0.38481842
| 17>   O    2.04362896       0.54694936       0.25807217
| 18>   H   -0.71508267       1.86967202       0.53390010
| 19>   H   -1.68756019      -1.77842524       0.21295082
| 20>   H   -1.16191307      -0.97968672      -1.30025754
| 21>   H    0.75448917      -2.16496837      -0.26702786
| 22>   H    0.53223665      -1.26290037       1.25413929
| 23>   H    1.15835247       0.03467558      -1.47455020
| 24> *
| 25>
| 26>                          ****END OF INPUT****
 Total Charge           Charge          ....    0
 Multiplicity           Mult            ....    1
 Number of Electrons    NEL             ....   48
Dispersion correction           -0.019259072
FINAL SINGLE POINT ENERGY      -343.343736131681
Dispersion correction            ... done
Dispersion correction           -0.018921359
FINAL SINGLE POINT ENERGY      -343.346704690965
Dispersion correction            ... done
Dispersion correction           -0.019077708
FINAL SINGLE POINT ENERGY      -343.347051628730
Dispersion correction            ... done
FINAL SINGLE POINT ENERGY      -343.347729620801
FINAL SINGLE POINT ENERGY      -343.347755976500
Dispersion correction           -0.019133321
FINAL SINGLE POINT ENERGY      -343.347764039413
Dispersion correction            ... done
Dispersion correction           -0.019129754
FINAL SINGLE POINT ENERGY      -343.347765824586
Dispersion correction            ... done
                    ***********************HURRAY********************

CARTESIAN COORDINATES (ANGSTROEM)
---------------------------------
  O     -1.053705    1.325969   -0.228168
  O     -1.662243    0.154317    0.396053
  C     -1.057781   -0.978199   -0.207198
  C      0.401197   -1.163443    0.177745
  C      1.310831   -0.115463   -0.397580
  O      2.095978    0.541876    0.247952
  H     -0.574516    1.702949    0.527242
  H     -1.659343   -1.806798    0.168873
  H     -1.181182   -0.934227   -1.292727
  H      0.726542   -2.125680   -0.232583
  H      0.522039   -1.198007    1.258886
  H      1.245044    0.002572   -1.499600

 Multiplicity           Mult            ....    1
 Number of Electrons    NEL             ....   48
 Basis Dimension        Dim             ....  147

ORBITAL ENERGIES
----------------

  NO   OCC          E(Eh)            E(eV)
   0   2.0000     -18.818191      -512.0690
   1   2.0000     -18.813265      -511.9350
   2   2.0000     -18.745774      -510.0984
   3   2.0000      -9.985381      -271.7160
   4   2.0000      -9.964370      -271.1443
   5   2.0000      -9.915088      -269.8033
   6   2.0000      -1.048166       -28.5220
   7   2.0000      -0.971004       -26.4224
   8   2.0000      -0.859470       -23.3874
   9   2.0000      -0.724956       -19.7271
  10   2.0000      -0.603436       -16.4203
  11   2.0000      -0.532747       -14.4968
  12   2.0000      -0.503455       -13.6997
  13   2.0000      -0.454263       -12.3611
  14   2.0000      -0.434575       -11.8254
  15   2.0000      -0.414579       -11.2813
  16   2.0000      -0.410408       -11.1678
  17   2.0000      -0.376078       -10.2336
  18   2.0000      -0.352958        -9.6045
  19   2.0000      -0.351779        -9.5724
  20   2.0000      -0.333601        -9.0777
  21   2.0000      -0.275750        -7.5036
  22   2.0000      -0.233998        -6.3674
  23   2.0000      -0.217679        -5.9234
  24   0.0000      -0.066137        -1.7997
  25   0.0000      -0.046529        -1.2661
  26   0.0000       0.018625         0.5068
  27   0.0000       0.040578         1.1042
  28   0.0000       0.054301         1.4776

MULLIKEN ATOMIC CHARGES
-----------------------
   0 O :   -0.459362
   1 O :   -0.096095
   2 C :   -0.250649
   3 C :   -0.229640
   4 C :    0.111334
   5 O :   -0.323293
   6 H :    0.440764
   7 H :    0.189639
   8 H :    0.175480
   9 H :    0.176135
  10 H :    0.171670
  11 H :    0.094017
Sum of atomic charges:    0.0000000

LOEWDIN ATOMIC CHARGES
----------------------
   0 O :   -0.345891
   1 O :   -0.474062
   2 C :    0.049230
   3 C :   -0.258141
   4 C :    0.215639
   5 O :   -0.463015
   6 H :    0.382845
   7 H :    0.195731
   8 H :    0.180576
   9 H :    0.184570
  10 H :    0.183047
  11 H :    0.149470

  Mayer bond orders larger than 0.100000
B(  0-O ,  1-O ) :   0.9627 B(  0-O ,  6-H ) :   0.7642 B(  1-O ,  2-C ) :   0.9364
B(  2-C ,  3-C ) :   0.9488 B(  2-C ,  7-H ) :   0.9373 B(  2-C ,  8-H ) :   0.9419
B(  3-C ,  4-C ) :   0.9051 B(  3-C ,  9-H ) :   0.9091 B(  3-C , 10-H ) :   0.9262
B(  4-C ,  5-O ) :   2.0984 B(  4-C , 11-H ) :   0.9038

Dispersion correction           -0.019129529
FINAL SINGLE POINT ENERGY      -343.347766271801

DIPOLE MOMENT
-------------
                                X             Y             Z
Electronic contribution:      0.38634       3.16873       0.83968
Nuclear contribution   :     -0.68533      -4.11322      -1.02567
                        -----------------------------------------
Total Dipole Moment    :     -0.29899      -0.94449      -0.18598
                        -----------------------------------------
Magnitude (a.u.)       :      1.00799
Magnitude (Debye)      :      2.56211

Dispersion correction in the Hessian             ... done   (      0.5 sec)

VIBRATIONAL FREQUENCIES
-----------------------

Scaling factor for frequencies =  1.000000000  (already applied!)

   0:         0.00 cm**-1
   1:         0.00 cm**-1
   2:         0.00 cm**-1
   3:         0.00 cm**-1
   4:         0.00 cm**-1
   5:         0.00 cm**-1
   6:        84.77 cm**-1
   7:       125.79 cm**-1
   8:       157.48 cm**-1
   9:       325.69 cm**-1
  10:       356.22 cm**-1
  11:       366.88 cm**-1
  12:       465.47 cm**-1
  13:       564.89 cm**-1
  14:       754.79 cm**-1
  15:       836.05 cm**-1
  16:       896.38 cm**-1
  17:       938.57 cm**-1
  18:      1021.35 cm**-1
  19:      1044.90 cm**-1
  20:      1125.67 cm**-1
  21:      1212.72 cm**-1
  22:      1263.04 cm**-1
  23:      1328.34 cm**-1
  24:      1372.30 cm**-1
  25:      1389.88 cm**-1
  26:      1414.41 cm**-1
  27:      1448.24 cm**-1
  28:      1470.66 cm**-1
  29:      1763.35 cm**-1
  30:      2818.88 cm**-1
  31:      2977.07 cm**-1
  32:      2984.50 cm**-1
  33:      3045.70 cm**-1
  34:      3072.82 cm**-1
  35:      3671.62 cm**-1

IR SPECTRUM
-----------

 Mode   freq       eps      Int      T**2         TX        TY        TZ
       cm**-1   L/(mol*cm) km/mol    a.u.
----------------------------------------------------------------------------
  6:     84.77   0.001722    8.70  0.006341  (-0.046025  0.029266  0.058016)
  7:    125.79   0.001730    8.74  0.004293  ( 0.013820 -0.050746  0.039071)
  8:    157.48   0.005525   27.92  0.010948  ( 0.086017 -0.057136 -0.016871)
  9:    325.69   0.005052   25.53  0.004841  (-0.055545  0.034978  0.023067)
 10:    356.22   0.012331   62.32  0.010803  ( 0.074377 -0.055039 -0.047343)
 11:    366.88   0.011208   56.64  0.009534  ( 0.071460 -0.066470 -0.002993)
 12:    465.47   0.000481    2.43  0.000323  ( 0.006839  0.012989 -0.010351)
 13:    564.89   0.002185   11.04  0.001207  ( 0.028646  0.016380 -0.010861)
 14:    754.79   0.000707    3.57  0.000292  ( 0.012540  0.005941 -0.009980)
 15:    836.05   0.002861   14.46  0.001068  ( 0.020775 -0.019894 -0.015504)
 16:    896.38   0.002432   12.29  0.000847  ( 0.007835  0.024248 -0.014044)
 17:    938.57   0.000877    4.43  0.000292  ( 0.001305 -0.016785  0.002862)
 18:   1021.35   0.006555   33.13  0.002003  (-0.043297  0.010220  0.004868)
 19:   1044.90   0.001223    6.18  0.000365  ( 0.001440  0.014405  0.012475)
 20:   1125.67   0.003372   17.04  0.000935  ( 0.019130  0.010245 -0.021540)
 21:   1212.72   0.004197   21.21  0.001080  ( 0.030411  0.011795  0.004004)
 22:   1263.04   0.002163   10.93  0.000534  ( 0.020131  0.008144 -0.007925)
 23:   1328.34   0.000267    1.35  0.000063  ( 0.006810 -0.002407  0.003263)
 24:   1372.30   0.007355   37.17  0.001673  (-0.013272 -0.037071  0.011052)
 25:   1389.88   0.003356   16.96  0.000753  ( 0.015909 -0.022053 -0.003740)
 26:   1414.41   0.000588    2.97  0.000130  ( 0.000572 -0.006341  0.009444)
 27:   1448.24   0.001935    9.78  0.000417  (-0.008309  0.013872 -0.012466)
 28:   1470.66   0.000623    3.15  0.000132  ( 0.001919  0.008186  0.007836)
 29:   1763.35   0.039625  200.25  0.007013  (-0.065708 -0.042879 -0.029263)
 30:   2818.88   0.022247  112.43  0.002463  (-0.000557  0.005063 -0.049365)
 31:   2977.07   0.002681   13.55  0.000281  (-0.013007  0.000537 -0.010560)
 32:   2984.50   0.007514   37.97  0.000786  (-0.007040 -0.017592 -0.020655)
 33:   3045.70   0.002205   11.14  0.000226  (-0.008158 -0.009013  0.008841)
 34:   3072.82   0.004041   20.42  0.000410  (-0.000160 -0.001038  0.020231)
 35:   3671.62   0.005644   28.52  0.000480  (-0.005468 -0.017476 -0.012015)

--------------------------
THERMOCHEMISTRY AT 298.15K
--------------------------

Temperature         ... 298.15 K
Pressure            ... 1.00 atm
Total Mass          ... 90.08 AMU

Throughout the following assumptions are being made:
  (1) The electronic state is orbitally nondegenerate
  (2) There are no thermally accessible electronically excited states
  (3) Hindered rotations indicated by low frequency modes are not
      treated as such but are treated as vibrations and this may
      cause some error
  (4) All equations used are the standard statistical mechanics
      equations for an ideal gas
  (5) All vibrations are strictly harmonic

freq.      84.77  E(vib)   ...       0.48
freq.     125.79  E(vib)   ...       0.43
freq.     157.48  E(vib)   ...       0.40
freq.     325.69  E(vib)   ...       0.24
freq.     356.22  E(vib)   ...       0.22
freq.     366.88  E(vib)   ...       0.22
freq.     465.47  E(vib)   ...       0.16
freq.     564.89  E(vib)   ...       0.11
freq.     754.79  E(vib)   ...       0.06
freq.     836.05  E(vib)   ...       0.04
freq.     896.38  E(vib)   ...       0.03
freq.     938.57  E(vib)   ...       0.03
freq.    1021.35  E(vib)   ...       0.02
freq.    1044.90  E(vib)   ...       0.02
freq.    1125.67  E(vib)   ...       0.01
freq.    1212.72  E(vib)   ...       0.01
freq.    1263.04  E(vib)   ...       0.01
freq.    1328.34  E(vib)   ...       0.01
freq.    1372.30  E(vib)   ...       0.01
freq.    1389.88  E(vib)   ...       0.00
freq.    1414.41  E(vib)   ...       0.00
freq.    1448.24  E(vib)   ...       0.00
freq.    1470.66  E(vib)   ...       0.00
freq.    1763.35  E(vib)   ...       0.00
freq.    2818.88  E(vib)   ...       0.00
freq.    2977.07  E(vib)   ...       0.00
freq.    2984.50  E(vib)   ...       0.00
freq.    3045.70  E(vib)   ...       0.00
freq.    3072.82  E(vib)   ...       0.00
freq.    3671.62  E(vib)   ...       0.00

------------
INNER ENERGY
------------

The inner energy is: U= E(el) + E(ZPE) + E(vib) + E(rot) + E(trans)
    E(el)   - is the total energy from the electronic structure calculation
              = E(kin-el) + E(nuc-el) + E(el-el) + E(nuc-nuc)
    E(ZPE)  - the the zero temperature vibrational energy from the frequency calculation
    E(vib)  - the the finite temperature correction to E(ZPE) due to population
              of excited vibrational states
    E(rot)  - is the rotational thermal energy
    E(trans)- is the translational thermal energy

Summary of contributions to the inner energy U:
Electronic energy                ...   -343.34776627 Eh
Zero point energy                ...      0.09180657 Eh      57.61 kcal/mol
Thermal vibrational correction   ...      0.00402419 Eh       2.53 kcal/mol
Thermal rotational correction    ...      0.00141627 Eh       0.89 kcal/mol
Thermal translational correction ...      0.00141627 Eh       0.89 kcal/mol
-----------------------------------------------------------------------
Total thermal energy                   -343.24910297 Eh

Summary of corrections to the electronic energy:
(perhaps to be used in another calculation)
Total thermal correction                  0.00685674 Eh       4.30 kcal/mol
Non-thermal (ZPE) correction              0.09180657 Eh      57.61 kcal/mol
-----------------------------------------------------------------------
Total correction                          0.09866330 Eh      61.91 kcal/mol

--------
ENTHALPY
--------

The enthalpy is H = U + kB*T
                kB is Boltzmann's constant
Total free energy                 ...   -343.24910297 Eh
Thermal Enthalpy correction       ...      0.00094421 Eh       0.59 kcal/mol
-----------------------------------------------------------------------
Total Enthalpy                    ...   -343.24815876 Eh

Note: Only C1 symmetry has been detected, increase convergence thresholds
      if your molecule has a higher symmetry. Symmetry factor of 1.0 is
      used for the rotational entropy correction.

Note: Rotational entropy computed according to Herzberg
Infrared and Raman Spectra, Chapter V,1, Van Nostrand Reinhold, 1945
Point Group:  C1, Symmetry Number:   1
Rotational constants in cm-1:     0.193390     0.089607     0.067627

Vibrational entropy computed according to the QRRHO of S. Grimme
Chem.Eur.J. 2012 18 9955

-------
ENTROPY
-------

The entropy contributions are T*S = T*(S(el)+S(vib)+S(rot)+S(trans))
     S(el)   - electronic entropy
     S(vib)  - vibrational entropy
     S(rot)  - rotational entropy
     S(trans)- translational entropy
The entropies will be listed as multiplied by the temperature to get
units of energy

Electronic entropy                ...      0.00000000 Eh      0.00 kcal/mol
Vibrational entropy               ...      0.00694344 Eh      4.36 kcal/mol
Rotational entropy                ...      0.01269701 Eh      7.97 kcal/mol
Translational entropy             ...      0.01872325 Eh     11.75 kcal/mol
-----------------------------------------------------------------------
Final entropy term                ...      0.03836369 Eh     24.07 kcal/mol

In case the symmetry of your molecule has not been determined correctly
or in case you have a reason to use a different symmetry number we print
out the resulting rotational entropy values for sn=1,12 :
 --------------------------------------------------------
|  sn= 1 | S(rot)=       0.01269701 Eh      7.97 kcal/mol|
|  sn= 2 | S(rot)=       0.01204255 Eh      7.56 kcal/mol|
|  sn= 3 | S(rot)=       0.01165972 Eh      7.32 kcal/mol|
|  sn= 4 | S(rot)=       0.01138809 Eh      7.15 kcal/mol|
|  sn= 5 | S(rot)=       0.01117741 Eh      7.01 kcal/mol|
|  sn= 6 | S(rot)=       0.01100526 Eh      6.91 kcal/mol|
|  sn= 7 | S(rot)=       0.01085972 Eh      6.81 kcal/mol|
|  sn= 8 | S(rot)=       0.01073364 Eh      6.74 kcal/mol|
|  sn= 9 | S(rot)=       0.01062243 Eh      6.67 kcal/mol|
|  sn=10 | S(rot)=       0.01052295 Eh      6.60 kcal/mol|
|  sn=11 | S(rot)=       0.01043296 Eh      6.55 kcal/mol|
|  sn=12 | S(rot)=       0.01035081 Eh      6.50 kcal/mol|
 --------------------------------------------------------

-------------------
GIBBS FREE ENERGY
-------------------

The Gibbs free energy is G = H - T*S

Total enthalpy                    ...   -343.24815876 Eh
Total entropy correction          ...     -0.03836369 Eh    -24.07 kcal/mol
-----------------------------------------------------------------------
Final Gibbs free energy         ...   -343.28652245 Eh

For completeness - the Gibbs free energy minus the electronic energy
G-E(el)                           ...      0.06124382 Eh     38.43 kcal/mol

                             ****ORCA TERMINATED NORMALLY****
TOTAL RUN TIME: 0 days 0 hours 1 minutes 14 seconds 546 msec
