 Gaussian 16, Revision B.01,
 Gaussian 16:  ES64L-G16RevB.01 20-Dec-2017

 ----------------------------------------------------------------------
 # B3LYP/6-31G** IRC=(CALCALL, maxpoints=60, StepSize=10, maxcyc=100, R
 eport=Cartesians)
 ----------------------------------------------------------------------

 ----------
 pp_1_0 IRC
 ----------
 Symbolic Z-matrix:
 Charge =  0 Multiplicity = 1

 SCF Done:  E(RB3LYP) =  -117.727596437     A.U. after   14 cycles
 SCF Done:  E(RB3LYP) =  -117.727956451     A.U. after   11 cycles
 SCF Done:  E(RB3LYP) =  -117.728980221     A.U. after   12 cycles
 SCF Done:  E(RB3LYP) =  -117.730550706     A.U. after   13 cycles
 SCF Done:  E(RB3LYP) =  -117.732537106     A.U. after   13 cycles
 SCF Done:  E(RB3LYP) =  -117.734828871     A.U. after   12 cycles
 SCF Done:  E(RB3LYP) =  -117.737351760     A.U. after   12 cycles
 SCF Done:  E(RB3LYP) =  -117.740060394     A.U. after   12 cycles
 SCF Done:  E(RB3LYP) =  -117.742924849     A.U. after   11 cycles
 SCF Done:  E(RB3LYP) =  -117.745922624     A.U. after   11 cycles
 SCF Done:  E(RB3LYP) =  -117.786051161     A.U. after   10 cycles
 SCF Done:  E(RB3LYP) =  -117.787582720     A.U. after   11 cycles
 SCF Done:  E(RB3LYP) =  -117.788765556     A.U. after   11 cycles
 SCF Done:  E(RB3LYP) =  -117.789599890     A.U. after   10 cycles
 SCF Done:  E(RB3LYP) =  -117.790105766     A.U. after   10 cycles
 SCF Done:  E(RB3LYP) =  -117.790369485     A.U. after   11 cycles
 SCF Done:  E(RB3LYP) =  -117.790533188     A.U. after   10 cycles
 SCF Done:  E(RB3LYP) =  -117.790647206     A.U. after   10 cycles
 SCF Done:  E(RB3LYP) =  -117.790715616     A.U. after   10 cycles
 SCF Done:  E(RB3LYP) =  -117.790744353     A.U. after   10 cycles

                          Input orientation:
 ---------------------------------------------------------------------
 Center     Atomic      Atomic             Coordinates (Angstroms)
 Number     Number       Type             X           Y           Z
 ---------------------------------------------------------------------
      1          6           0       -1.189341    0.091416   -0.441657
      2          6           0        0.090995    0.285224    0.359140
      3          6           0        1.253539   -0.507461    0.073004
      4          1           0       -0.081909    0.748852    1.345358
      5          1           0       -1.837001   -0.620963    0.080546
      6          1           0       -1.750629    1.024321   -0.555858
      7          1           0       -0.955381   -0.320319   -1.426382
      8          1           0        0.798827    1.006956   -0.216978
      9          1           0        1.978240   -0.281179    0.886576
 ---------------------------------------------------------------------

 Alpha  occ. eigenvalues --  -10.21949 -10.20071 -10.18477  -0.81353  -0.69043
 Alpha  occ. eigenvalues --   -0.54079  -0.47435  -0.44009  -0.38180  -0.37688
 Alpha  occ. eigenvalues --   -0.33940  -0.20434
 Alpha virt. eigenvalues --   -0.04252   0.07925   0.11236   0.13875   0.16478
 Alpha virt. eigenvalues --    0.17028   0.18181   0.23239   0.31073   0.49428
 Alpha virt. eigenvalues --    0.51279   0.53384   0.58061   0.59991   0.62362

 Mulliken charges:
               1
     1  C   -0.308514
     2  C   -0.202001
     3  C   -0.176257
     4  H    0.105568
     5  H    0.123542
     6  H    0.105327
     7  H    0.127804
     8  H    0.148323
     9  H    0.076208
 Sum of Mulliken charges =   0.00000

 Dipole moment (field-independent basis, Debye):
    X=             -1.1192    Y=              1.6739    Z=              1.1308  Tot=              2.3094
 Quadrupole moment (field-independent basis, Debye-Ang):
   XX=            -21.5711   YY=            -20.8234   ZZ=            -20.3717
   XY=              2.4036   XZ=              1.6899   YZ=             -1.2905

  Exact polarizability:   0.000   0.000   0.000   0.000   0.000   0.000
 Approx polarizability:  51.952  -5.315  45.095   0.175   0.991  40.523

 Normal termination of Gaussian 16 at Fri Jul 17 17:42:53 2020.
