 Gaussian 16, Revision B.01,
 Gaussian 16:  ES64L-G16RevB.01 20-Dec-2017

 ----------------------------------------------------------------------
 # B3LYP/6-31G** IRC=(CALCALL, maxpoints=60, StepSize=10, maxcyc=100, R
 eport=Cartesians)
 ----------------------------------------------------------------------

 ----------
 pp_2_1 IRC
 ----------
 Symbolic Z-matrix:
 Charge =  0 Multiplicity = 1

 SCF Done:  E(RB3LYP) =  -117.773226564     A.U. after   13 cycles
 SCF Done:  E(RB3LYP) =  -117.773274465     A.U. after   11 cycles
 SCF Done:  E(RB3LYP) =  -117.773419488     A.U. after   11 cycles
 SCF Done:  E(RB3LYP) =  -117.773661325     A.U. after   11 cycles
 SCF Done:  E(RB3LYP) =  -117.774000346     A.U. after   11 cycles
 SCF Done:  E(RB3LYP) =  -117.774436966     A.U. after   11 cycles
 SCF Done:  E(RB3LYP) =  -117.774971497     A.U. after   11 cycles
 SCF Done:  E(RB3LYP) =  -117.775604051     A.U. after   11 cycles
 SCF Done:  E(RB3LYP) =  -117.776334467     A.U. after   11 cycles
 SCF Done:  E(RB3LYP) =  -117.777162270     A.U. after   11 cycles
 SCF Done:  E(RB3LYP) =  -117.915265206     A.U. after    9 cycles
 SCF Done:  E(RB3LYP) =  -117.915441276     A.U. after    9 cycles
 SCF Done:  E(RB3LYP) =  -117.915610178     A.U. after    9 cycles
 SCF Done:  E(RB3LYP) =  -117.915769927     A.U. after    9 cycles
 SCF Done:  E(RB3LYP) =  -117.915918695     A.U. after    9 cycles
 SCF Done:  E(RB3LYP) =  -117.916054810     A.U. after    9 cycles
 SCF Done:  E(RB3LYP) =  -117.916176765     A.U. after    9 cycles
 SCF Done:  E(RB3LYP) =  -117.916283226     A.U. after    9 cycles
 SCF Done:  E(RB3LYP) =  -117.916373050     A.U. after    9 cycles
 SCF Done:  E(RB3LYP) =  -117.916445293     A.U. after    9 cycles

                          Input orientation:
 ---------------------------------------------------------------------
 Center     Atomic      Atomic             Coordinates (Angstroms)
 Number     Number       Type             X           Y           Z
 ---------------------------------------------------------------------
      1          6           0       -1.255024   -0.203161   -0.045140
      2          6           0        0.116287    0.250118    0.365743
      3          6           0        1.243677   -0.017093   -0.292997
      4          1           0        0.167302    0.856661    1.270636
      5          1           0       -1.773584   -0.705916    0.780755
      6          1           0       -1.881709    0.651236   -0.333813
      7          1           0       -1.212817   -0.893071   -0.893615
      8          1           0        1.244791   -0.614964   -1.201642
      9          1           0        2.206509    0.350456    0.048984
 ---------------------------------------------------------------------

 Alpha  occ. eigenvalues --  -10.18734 -10.18085 -10.17296  -0.77985  -0.68042
 Alpha  occ. eigenvalues --   -0.54942  -0.46085  -0.41551  -0.40791  -0.36750
 Alpha  occ. eigenvalues --   -0.34120  -0.25016
 Alpha virt. eigenvalues --    0.02698   0.11372   0.13568   0.15047   0.17610
 Alpha virt. eigenvalues --    0.18075   0.19324   0.28637   0.37550   0.49334
 Alpha virt. eigenvalues --    0.52579   0.53418   0.60531   0.62867   0.65411

 Mulliken charges:
               1
     1  C   -0.350050
     2  C   -0.023897
     3  C   -0.235754
     4  H    0.083515
     5  H    0.114234
     6  H    0.117912
     7  H    0.110384
     8  H    0.089468
     9  H    0.094187
 Sum of Mulliken charges =  -0.00000

 Dipole moment (field-independent basis, Debye):
    X=             -0.3568    Y=              0.0308    Z=              0.0806  Tot=              0.3671
 Quadrupole moment (field-independent basis, Debye-Ang):
   XX=            -18.9175   YY=            -20.4864   ZZ=            -19.4782
   XY=              0.1698   XZ=             -0.2379   YZ=              1.1410

  Exact polarizability:   0.000   0.000   0.000   0.000   0.000   0.000
 Approx polarizability:  59.494  -2.539  31.160 -10.872   8.224  41.010

 Normal termination of Gaussian 16 at Fri Jul 17 18:02:21 2020.
