 Gaussian 16, Revision B.01,
 Gaussian 16:  ES64L-G16RevB.01 20-Dec-2017

 ----------------------------------------------------------------------
 # B3LYP/6-31G** IRC=(CALCALL, maxpoints=60, StepSize=10, maxcyc=100, R
 eport=Cartesians)
 ----------------------------------------------------------------------

 ----------
 pp_2_0 IRC
 ----------
 Symbolic Z-matrix:
 Charge =  0 Multiplicity = 1

 SCF Done:  E(RB3LYP) =  -117.707974812     A.U. after   19 cycles
 SCF Done:  E(RB3LYP) =  -117.709061480     A.U. after   17 cycles
 SCF Done:  E(RB3LYP) =  -117.712012887     A.U. after   16 cycles
 SCF Done:  E(RB3LYP) =  -117.716165509     A.U. after   15 cycles
 SCF Done:  E(RB3LYP) =  -117.721061115     A.U. after   15 cycles
 SCF Done:  E(RB3LYP) =  -117.726474938     A.U. after   14 cycles
 SCF Done:  E(RB3LYP) =  -117.732310027     A.U. after   13 cycles
 SCF Done:  E(RB3LYP) =  -117.738534395     A.U. after   13 cycles
 SCF Done:  E(RB3LYP) =  -117.745149616     A.U. after   13 cycles
 SCF Done:  E(RB3LYP) =  -117.752173649     A.U. after   12 cycles
 SCF Done:  E(RB3LYP) =  -117.887746129     A.U. after    9 cycles
 SCF Done:  E(RB3LYP) =  -117.890475486     A.U. after    9 cycles
 SCF Done:  E(RB3LYP) =  -117.893057505     A.U. after    9 cycles
 SCF Done:  E(RB3LYP) =  -117.895461639     A.U. after    9 cycles
 SCF Done:  E(RB3LYP) =  -117.897653842     A.U. after    9 cycles
 SCF Done:  E(RB3LYP) =  -117.899596720     A.U. after    9 cycles
 SCF Done:  E(RB3LYP) =  -117.901249817     A.U. after    9 cycles
 SCF Done:  E(RB3LYP) =  -117.902570458     A.U. after    9 cycles
 SCF Done:  E(RB3LYP) =  -117.903515536     A.U. after    9 cycles
 SCF Done:  E(RB3LYP) =  -117.904045707     A.U. after    9 cycles

                          Input orientation:
 ---------------------------------------------------------------------
 Center     Atomic      Atomic             Coordinates (Angstroms)
 Number     Number       Type             X           Y           Z
 ---------------------------------------------------------------------
      1          6           0       -0.662810   -0.041335   -0.568856
      2          6           0       -0.164460    0.116871    0.841048
      3          6           0        0.827362   -0.075588   -0.272677
      4          1           0       -0.231557    1.102753    1.291300
      5          1           0       -0.322244   -0.697108    1.542204
      6          1           0       -1.074964    0.830778   -1.067515
      7          1           0       -1.143895   -0.975681   -0.842358
      8          1           0        1.437209    0.772710   -0.568627
      9          1           0        1.334364   -1.032841   -0.349236
 ---------------------------------------------------------------------

 Alpha  occ. eigenvalues --  -10.18256 -10.18228 -10.18177  -0.84178  -0.59241
 Alpha  occ. eigenvalues --   -0.59044  -0.48631  -0.46006  -0.35887  -0.35693
 Alpha  occ. eigenvalues --   -0.29053  -0.28560
 Alpha virt. eigenvalues --    0.10558   0.11036   0.15274   0.15665   0.15699
 Alpha virt. eigenvalues --    0.23148   0.23315   0.25938   0.26435   0.46947
 Alpha virt. eigenvalues --    0.54245   0.55812   0.56251   0.62773   0.63520

 Mulliken charges:
               1
     1  C   -0.219952
     2  C   -0.216090
     3  C   -0.219948
     4  H    0.109128
     5  H    0.108823
     6  H    0.109445
     7  H    0.109576
     8  H    0.109437
     9  H    0.109582
 Sum of Mulliken charges =  -0.00000

 Dipole moment (field-independent basis, Debye):
    X=             -0.0042    Y=              0.0030    Z=              0.0217  Tot=              0.0223
 Quadrupole moment (field-independent basis, Debye-Ang):
   XX=            -20.2451   YY=            -18.2709   ZZ=            -20.3002
   XY=              0.0936   XZ=              0.0053   YZ=             -0.2453

  Exact polarizability:   0.000   0.000   0.000   0.000   0.000   0.000
 Approx polarizability:  40.473  -0.043  39.555   0.171   0.096  39.663

 Normal termination of Gaussian 16 at Fri Jul 17 17:51:27 2020.
