 Gaussian 16, Revision B.01,
 Gaussian 16:  ES64L-G16RevB.01 20-Dec-2017

 ----------------------------------------------------------------------
 # B3LYP/6-31G** IRC=(CALCALL, maxpoints=60, StepSize=10, maxcyc=100, R
 eport=Cartesians)
 ----------------------------------------------------------------------

 ----------
 pp_2_2 IRC
 ----------
 Symbolic Z-matrix:
 Charge =  0 Multiplicity = 1

 SCF Done:  E(RB3LYP) =  -117.773226389     A.U. after   13 cycles
 SCF Done:  E(RB3LYP) =  -117.773274744     A.U. after   11 cycles
 SCF Done:  E(RB3LYP) =  -117.773420192     A.U. after   11 cycles
 SCF Done:  E(RB3LYP) =  -117.773662447     A.U. after   12 cycles
 SCF Done:  E(RB3LYP) =  -117.774001879     A.U. after   12 cycles
 SCF Done:  E(RB3LYP) =  -117.774438907     A.U. after   12 cycles
 SCF Done:  E(RB3LYP) =  -117.774973853     A.U. after   12 cycles
 SCF Done:  E(RB3LYP) =  -117.775606832     A.U. after   11 cycles
 SCF Done:  E(RB3LYP) =  -117.776337685     A.U. after   11 cycles
 SCF Done:  E(RB3LYP) =  -117.777165936     A.U. after   11 cycles
 SCF Done:  E(RB3LYP) =  -117.915264366     A.U. after    9 cycles
 SCF Done:  E(RB3LYP) =  -117.915440493     A.U. after    9 cycles
 SCF Done:  E(RB3LYP) =  -117.915609474     A.U. after    9 cycles
 SCF Done:  E(RB3LYP) =  -117.915769323     A.U. after    9 cycles
 SCF Done:  E(RB3LYP) =  -117.915918198     A.U. after    9 cycles
 SCF Done:  E(RB3LYP) =  -117.916054405     A.U. after    9 cycles
 SCF Done:  E(RB3LYP) =  -117.916176419     A.U. after    9 cycles
 SCF Done:  E(RB3LYP) =  -117.916282910     A.U. after    9 cycles
 SCF Done:  E(RB3LYP) =  -117.916372753     A.U. after    9 cycles
 SCF Done:  E(RB3LYP) =  -117.916445031     A.U. after    9 cycles

                          Input orientation:
 ---------------------------------------------------------------------
 Center     Atomic      Atomic             Coordinates (Angstroms)
 Number     Number       Type             X           Y           Z
 ---------------------------------------------------------------------
      1          6           0       -1.259840    0.176268   -0.010930
      2          6           0        0.123375   -0.308567    0.315309
      3          6           0        1.242186    0.100626   -0.282323
      4          1           0        0.191686   -1.065892    1.097052
      5          1           0       -1.789132    0.509586    0.890467
      6          1           0       -1.236914    1.007940   -0.721891
      7          1           0       -1.865370   -0.628082   -0.449578
      8          1           0        1.226182    0.851417   -1.069179
      9          1           0        2.214744   -0.297843   -0.009483
 ---------------------------------------------------------------------

 Alpha  occ. eigenvalues --  -10.18734 -10.18085 -10.17296  -0.77985  -0.68042
 Alpha  occ. eigenvalues --   -0.54942  -0.46085  -0.41551  -0.40791  -0.36750
 Alpha  occ. eigenvalues --   -0.34120  -0.25016
 Alpha virt. eigenvalues --    0.02698   0.11372   0.13567   0.15047   0.17610
 Alpha virt. eigenvalues --    0.18075   0.19324   0.28637   0.37550   0.49334
 Alpha virt. eigenvalues --    0.52579   0.53418   0.60531   0.62867   0.65411

 Mulliken charges:
               1
     1  C   -0.350050
     2  C   -0.023899
     3  C   -0.235753
     4  H    0.083516
     5  H    0.114231
     6  H    0.110384
     7  H    0.117915
     8  H    0.089467
     9  H    0.094187
 Sum of Mulliken charges =  -0.00000

 Dipole moment (field-independent basis, Debye):
    X=             -0.3558    Y=             -0.0537    Z=              0.0730  Tot=              0.3671
 Quadrupole moment (field-independent basis, Debye-Ang):
   XX=            -18.9109   YY=            -20.0573   ZZ=            -19.9139
   XY=             -0.0928   XZ=             -0.2307   YZ=             -1.2520

  Exact polarizability:   0.000   0.000   0.000   0.000   0.000   0.000
 Approx polarizability:  59.300   5.095  34.616  -9.950  -9.675  37.748

 Normal termination of Gaussian 16 at Fri Jul 17 18:13:15 2020.
