 Gaussian 16, Revision B.01,
 Gaussian 16:  ES64L-G16RevB.01 20-Dec-2017

 ----------------------------------------------------------------------
 # B3LYP/6-31G** IRC=(CALCALL, maxpoints=60, StepSize=10, maxcyc=100, R
 eport=Cartesians)
 ----------------------------------------------------------------------

 ----------
 pp_3_1 IRC
 ----------
 Symbolic Z-matrix:
 Charge =  0 Multiplicity = 1

 SCF Done:  E(RB3LYP) =  -117.734849467     A.U. after   15 cycles
 SCF Done:  E(RB3LYP) =  -117.735213808     A.U. after   13 cycles
 SCF Done:  E(RB3LYP) =  -117.736258510     A.U. after   13 cycles
 SCF Done:  E(RB3LYP) =  -117.737911552     A.U. after   13 cycles
 SCF Done:  E(RB3LYP) =  -117.740118161     A.U. after   13 cycles
 SCF Done:  E(RB3LYP) =  -117.742838116     A.U. after   12 cycles
 SCF Done:  E(RB3LYP) =  -117.746044639     A.U. after   12 cycles
 SCF Done:  E(RB3LYP) =  -117.749721810     A.U. after   12 cycles
 SCF Done:  E(RB3LYP) =  -117.753861961     A.U. after   12 cycles
 SCF Done:  E(RB3LYP) =  -117.758463044     A.U. after   12 cycles
 SCF Done:  E(RB3LYP) =  -117.841622139     A.U. after    9 cycles
 SCF Done:  E(RB3LYP) =  -117.841898709     A.U. after    9 cycles
 SCF Done:  E(RB3LYP) =  -117.842134009     A.U. after    9 cycles
 SCF Done:  E(RB3LYP) =  -117.842331240     A.U. after    9 cycles
 SCF Done:  E(RB3LYP) =  -117.842494308     A.U. after    9 cycles
 SCF Done:  E(RB3LYP) =  -117.842627722     A.U. after    9 cycles
 SCF Done:  E(RB3LYP) =  -117.842736245     A.U. after    9 cycles
 SCF Done:  E(RB3LYP) =  -117.842824381     A.U. after    9 cycles
 SCF Done:  E(RB3LYP) =  -117.842895960     A.U. after    9 cycles
 SCF Done:  E(RB3LYP) =  -117.842954053     A.U. after    9 cycles

                          Input orientation:
 ---------------------------------------------------------------------
 Center     Atomic      Atomic             Coordinates (Angstroms)
 Number     Number       Type             X           Y           Z
 ---------------------------------------------------------------------
      1          6           0       -1.235399   -0.383913   -0.039069
      2          6           0        0.043282   -0.120796   -0.083602
      3          6           0        1.323111    0.141742   -0.129708
      4          1           0       -0.582424    2.213105    1.533393
      5          1           0       -1.937321    0.302056    0.428003
      6          1           0       -1.156388    2.595878    1.811851
      7          1           0       -1.640765   -1.297539   -0.466777
      8          1           0        1.760410    0.686461   -0.962973
      9          1           0        1.996765   -0.178175    0.661540
 ---------------------------------------------------------------------

 Alpha  occ. eigenvalues --  -10.20727 -10.19284 -10.19114  -0.78813  -0.70175
 Alpha  occ. eigenvalues --   -0.52072  -0.45014  -0.44557  -0.44086  -0.42118
 Alpha  occ. eigenvalues --   -0.26513  -0.26425
 Alpha virt. eigenvalues --    0.01791   0.01909   0.10510   0.13015   0.14052
 Alpha virt. eigenvalues --    0.21202   0.21433   0.30622   0.32913   0.42871
 Alpha virt. eigenvalues --    0.52133   0.53809   0.62054   0.64927   0.65205

 Mulliken charges:
               1
     1  C   -0.400692
     2  C    0.302005
     3  C   -0.404067
     4  H    0.011259
     5  H    0.128033
     6  H   -0.017994
     7  H    0.126340
     8  H    0.127593
     9  H    0.127523
 Sum of Mulliken charges =  -0.00000

 Dipole moment (field-independent basis, Debye):
    X=              0.0473    Y=             -0.1049    Z=             -0.0722  Tot=              0.1358
 Quadrupole moment (field-independent basis, Debye-Ang):
   XX=            -17.4302   YY=            -20.8046   ZZ=            -20.8739
   XY=              0.5687   XZ=             -0.1774   YZ=             -0.0830

  Exact polarizability:   0.000   0.000   0.000   0.000   0.000   0.000
 Approx polarizability:  95.632  10.453  29.848  -4.863   2.067  25.389

 Normal termination of Gaussian 16 at Fri Jul 17 19:01:36 2020.
