 Gaussian 16, Revision B.01,
 Gaussian 16:  ES64L-G16RevB.01 20-Dec-2017

 ----------------------------------------------------------------------
 # B3LYP/6-31G** IRC=(CALCALL, maxpoints=60, StepSize=10, maxcyc=100, R
 eport=Cartesians)
 ----------------------------------------------------------------------

 ----------
 pp_3_2 IRC
 ----------
 Symbolic Z-matrix:
 Charge =  0 Multiplicity = 1

 SCF Done:  E(RB3LYP) =  -117.734849496     A.U. after   14 cycles
 SCF Done:  E(RB3LYP) =  -117.735214805     A.U. after   13 cycles
 SCF Done:  E(RB3LYP) =  -117.736261925     A.U. after   13 cycles
 SCF Done:  E(RB3LYP) =  -117.737919195     A.U. after   13 cycles
 SCF Done:  E(RB3LYP) =  -117.740131253     A.U. after   13 cycles
 SCF Done:  E(RB3LYP) =  -117.742857479     A.U. after   12 cycles
 SCF Done:  E(RB3LYP) =  -117.746070934     A.U. after   12 cycles
 SCF Done:  E(RB3LYP) =  -117.749755802     A.U. after   12 cycles
 SCF Done:  E(RB3LYP) =  -117.753904435     A.U. after   12 cycles
 SCF Done:  E(RB3LYP) =  -117.758514615     A.U. after   12 cycles
 SCF Done:  E(RB3LYP) =  -117.841625144     A.U. after    9 cycles
 SCF Done:  E(RB3LYP) =  -117.841901187     A.U. after    9 cycles
 SCF Done:  E(RB3LYP) =  -117.842136000     A.U. after    9 cycles
 SCF Done:  E(RB3LYP) =  -117.842332791     A.U. after    9 cycles
 SCF Done:  E(RB3LYP) =  -117.842495474     A.U. after    9 cycles
 SCF Done:  E(RB3LYP) =  -117.842628567     A.U. after    9 cycles
 SCF Done:  E(RB3LYP) =  -117.842736844     A.U. after    9 cycles
 SCF Done:  E(RB3LYP) =  -117.842824814     A.U. after    9 cycles
 SCF Done:  E(RB3LYP) =  -117.842896291     A.U. after    9 cycles
 SCF Done:  E(RB3LYP) =  -117.842954311     A.U. after    9 cycles

                          Input orientation:
 ---------------------------------------------------------------------
 Center     Atomic      Atomic             Coordinates (Angstroms)
 Number     Number       Type             X           Y           Z
 ---------------------------------------------------------------------
      1          6           0       -1.243057    0.357787    0.044439
      2          6           0        0.039937    0.135486   -0.059239
      3          6           0        1.324042   -0.085949   -0.164361
      4          1           0       -0.521176   -2.477871    1.085308
      5          1           0       -1.926007   -0.419736    0.376763
      6          1           0       -1.671122    1.327452   -0.197383
      7          1           0       -1.084171   -2.919080    1.289904
      8          1           0        1.762335   -0.451753   -1.089763
      9          1           0        2.000338    0.091054    0.668419
 ---------------------------------------------------------------------

 Alpha  occ. eigenvalues --  -10.20727 -10.19284 -10.19114  -0.78813  -0.70175
 Alpha  occ. eigenvalues --   -0.52072  -0.45014  -0.44557  -0.44086  -0.42119
 Alpha  occ. eigenvalues --   -0.26513  -0.26425
 Alpha virt. eigenvalues --    0.01791   0.01909   0.10509   0.13015   0.14052
 Alpha virt. eigenvalues --    0.21202   0.21433   0.30622   0.32913   0.42871
 Alpha virt. eigenvalues --    0.52132   0.53809   0.62054   0.64927   0.65205

 Mulliken charges:
               1
     1  C   -0.400695
     2  C    0.302009
     3  C   -0.404070
     4  H    0.011257
     5  H    0.128035
     6  H    0.126340
     7  H   -0.017993
     8  H    0.127594
     9  H    0.127523
 Sum of Mulliken charges =  -0.00000

 Dipole moment (field-independent basis, Debye):
    X=              0.0444    Y=              0.1177    Z=             -0.0511  Tot=              0.1358
 Quadrupole moment (field-independent basis, Debye-Ang):
   XX=            -17.4138   YY=            -20.8591   ZZ=            -20.8356
   XY=             -0.4503   XZ=             -0.3106   YZ=              0.0871

  Exact polarizability:   0.000   0.000   0.000   0.000   0.000   0.000
 Approx polarizability:  95.894  -7.936  30.092  -7.283  -1.165  24.883

 Normal termination of Gaussian 16 at Fri Jul 17 19:11:02 2020.
