 Gaussian 16, Revision B.01,
 Gaussian 16:  ES64L-G16RevB.01 20-Dec-2017

 --------------------------------------------------------------
 # B3LYP/6-31+G* OPT=(TS, CALCALL, NOEIGEN, maxcycles=100) Freq
 --------------------------------------------------------------

 ----------
 pp_14_0 TS
 ----------
 Symbolic Z-matrix:
 Charge =  0 Multiplicity = 1

 SCF Done:  E(RB3LYP) =  -343.379802332     A.U. after   17 cycles
 SCF Done:  E(RB3LYP) =  -343.395707484     A.U. after   15 cycles
 SCF Done:  E(RB3LYP) =  -343.407983240     A.U. after   15 cycles
 SCF Done:  E(RB3LYP) =  -343.414527953     A.U. after   14 cycles
 SCF Done:  E(RB3LYP) =  -343.416028380     A.U. after   13 cycles
 SCF Done:  E(RB3LYP) =  -343.416461519     A.U. after   13 cycles
 SCF Done:  E(RB3LYP) =  -343.416553435     A.U. after   13 cycles
 SCF Done:  E(RB3LYP) =  -343.416560338     A.U. after   11 cycles
 SCF Done:  E(RB3LYP) =  -343.416560407     A.U. after    9 cycles
 Optimization completed.
    -- Stationary point found.
 ******    1 imaginary frequencies (negative Signs) ******
    1 imaginary frequencies ignored.
 Normal termination of Gaussian 16 at Wed Dec 23 22:04:20 2020.

 ---------------------------------------------------------------------
 #N Geom=AllCheck Guess=TCheck SCRF=Check GenChk RB3LYP/6-31+G(d) Freq
 ---------------------------------------------------------------------

 Structure from the checkpoint file:  "/scratch/bell/zhao922/YARP/paper-example/KHP-network/pp_0/TS-folder/Gau-5229.chk"
 ----------
 pp_14_0 TS
 ----------
 Charge =  0 Multiplicity = 1

                         Standard orientation:
 ---------------------------------------------------------------------
 Center     Atomic      Atomic             Coordinates (Angstroms)
 Number     Number       Type             X           Y           Z
 ---------------------------------------------------------------------
      1          6           0        0.450822    0.455170   -0.525912
      2          6           0       -0.702427    0.898096    0.377167
      3          6           0       -1.930653    0.027675    0.257817
      4          8           0        1.655942    0.840414   -0.193333
      5          8           0        2.012487   -1.010476    0.314349
      6          8           0       -1.961832   -1.029985   -0.336585
      7          1           0        2.741172   -1.603858    0.621029
      8          1           0        0.637876   -0.748033   -0.303908
      9          1           0        0.253340    0.434592   -1.612305
     10          1           0       -2.839548    0.408499    0.770996
     11          1           0       -0.980732    1.942443    0.168061
     12          1           0       -0.371339    0.881076    1.426247
 ---------------------------------------------------------------------

 SCF Done:  E(RB3LYP) =  -343.416560407     A.U. after    1 cycles

 The electronic state is 1-A.
 Alpha  occ. eigenvalues --  -19.22563 -19.18691 -19.18402 -10.30728 -10.26840
 Alpha  occ. eigenvalues --  -10.22836  -1.07730  -1.06338  -0.95979  -0.79679
 Alpha  occ. eigenvalues --   -0.65971  -0.59147  -0.54587  -0.50914  -0.49126
 Alpha  occ. eigenvalues --   -0.46516  -0.44303  -0.43890  -0.39181  -0.35961
 Alpha  occ. eigenvalues --   -0.33572  -0.32274  -0.29485  -0.27731
 Alpha virt. eigenvalues --   -0.16243  -0.05423   0.00239   0.01567   0.02860
 Alpha virt. eigenvalues --    0.03298   0.05333   0.06452   0.06940   0.07892
 Alpha virt. eigenvalues --    0.08977   0.11231   0.11578   0.12742   0.15357

 Mulliken charges:
               1
     1  C   -0.358488
     2  C   -0.363772
     3  C    0.165516
     4  O   -0.138271
     5  O   -0.660294
     6  O   -0.348467
     7  H    0.471655
     8  H    0.343984
     9  H    0.227442
    10  H    0.166733
    11  H    0.234549
    12  H    0.259412
 Sum of Mulliken charges =  -0.00000

 Dipole moment (field-independent basis, Debye):
    X=             -1.1320    Y=              1.5177    Z=              0.9976  Tot=              2.1401
 Quadrupole moment (field-independent basis, Debye-Ang):
   XX=            -37.1132   YY=            -36.0680   ZZ=            -34.8729
   XY=             -9.1947   XZ=             -1.0593   YZ=             -1.7407

  Exact polarizability:  72.265 -10.815  61.267   3.533  -0.601  44.439
 Approx polarizability:  99.223 -18.134 113.561  13.709  -5.669  65.720

 ******    1 imaginary frequencies (negative Signs) ******

                      1                      2                      3
                      A                      A                      A
 Frequencies --  -1375.3029                53.0820               123.2917
 Red. masses --      1.1568                 5.3794                 3.1102
 Frc consts  --      1.2891                 0.0089                 0.0279
 IR Inten    --    127.5427                 8.6470                 3.9668

                      4                      5                      6
                      A                      A                      A
 Frequencies --    170.4587               225.6380               292.9871
 Red. masses --      2.7051                 2.9993                 1.1517
 Frc consts  --      0.0463                 0.0900                 0.0583
 IR Inten    --      5.6037                 8.7680               182.7890

                      7                      8                      9
                      A                      A                      A
 Frequencies --    420.1521               469.7693               607.3291
 Red. masses --      4.9622                 5.3140                 3.8109
 Frc consts  --      0.5161                 0.6909                 0.8282
 IR Inten    --     10.1994                28.7414                 2.2119

                     10                     11                     12
                      A                      A                      A
 Frequencies --    696.6073               702.0964               846.8048
 Red. masses --      1.5940                 2.8783                 1.3922
 Frc consts  --      0.4557                 0.8359                 0.5882
 IR Inten    --     19.6704                13.2194                 7.3032

                     13                     14                     15
                      A                      A                      A
 Frequencies --    913.6689              1037.5692              1066.9610
 Red. masses --      2.3263                 2.3047                 2.0111
 Frc consts  --      1.1442                 1.4619                 1.3489
 IR Inten    --      8.1762                24.3354                 1.5340

                     16                     17                     18
                      A                      A                      A
 Frequencies --   1122.6312              1210.2744              1261.9170
 Red. masses --      1.1750                 1.2840                 1.1731
 Frc consts  --      0.8725                 1.1081                 1.1006
 IR Inten    --     41.3206                13.6535               136.7809

                     19                     20                     21
                      A                      A                      A
 Frequencies --   1276.9867              1338.0487              1412.1008
 Red. masses --      1.7177                 1.7965                 1.3970
 Frc consts  --      1.6503                 1.8951                 1.6412
 IR Inten    --     11.9035                11.7015                15.4922

                     22                     23                     24
                      A                      A                      A
 Frequencies --   1426.6999              1455.3541              1791.0043
 Red. masses --      1.3842                 1.1066                 1.3199
 Frc consts  --      1.6600                 1.3809                 2.4945
 IR Inten    --      5.9087                22.2218                45.9434

                     25                     26                     27
                      A                      A                      A
 Frequencies --   1808.6234              2932.3521              2993.2614
 Red. masses --      4.3109                 1.0844                 1.0798
 Frc consts  --      8.3083                 5.4937                 5.7001
 IR Inten    --    203.5327               122.0803                15.1198

                     28                     29                     30
                      A                      A                      A
 Frequencies --   3029.7259              3065.6658              3548.4423
 Red. masses --      1.0627                 1.0981                 1.0643
 Frc consts  --      5.7473                 6.0803                 7.8957
 IR Inten    --     13.0655                 3.6952                16.5876

 - Thermochemistry -
 -------------------
 Temperature   298.150 Kelvin.  Pressure   1.00000 Atm.
 Atom     1 has atomic number  6 and mass  12.00000

 Molecular mass:    90.03169 amu.
 Principal axes and moments of inertia in atomic units:
                           1         2         3
     Eigenvalues --   285.85794 916.039841090.75318
           X            0.99892  -0.04580  -0.00824
           Y            0.04589   0.99889   0.01028
           Z            0.00776  -0.01064   0.99991
 This molecule is an asymmetric top.
 Rotational symmetry number  1.
 Rotational temperatures (Kelvin)      0.30300     0.09455     0.07941
 Rotational constants (GHZ):           6.31342     1.97016     1.65458
    1 imaginary frequencies ignored.
 Zero-point vibrational energy     223100.6 (Joules/Mol)
                                   53.32232 (Kcal/Mol)
 Warning -- explicit consideration of   8 degrees of freedom as
           vibrations may cause significant error
 Vibrational temperatures:     76.37   177.39   245.25   324.64   421.54
          (Kelvin)            604.51   675.89   873.81  1002.26  1010.16
                             1218.36  1314.57  1492.83  1535.12  1615.22
                             1741.31  1815.62  1837.30  1925.15  2031.70
                             2052.70  2093.93  2576.86  2602.21  4219.00
                             4306.64  4359.10  4410.81  5105.42

 Zero-point correction=                           0.084975 (Hartree/Particle)
 Thermal correction to Energy=                    0.092079
 Thermal correction to Enthalpy=                  0.093023
 Thermal correction to Gibbs Free Energy=         0.053362
 Sum of electronic and zero-point Energies=           -343.331586
 Sum of electronic and thermal Energies=              -343.324482
 Sum of electronic and thermal Enthalpies=            -343.323537
 Sum of electronic and thermal Free Energies=         -343.363199

                     E (Thermal)             CV                S
                      KCal/Mol        Cal/Mol-Kelvin    Cal/Mol-Kelvin
 Total                   57.780             23.616             83.474
 Electronic               0.000              0.000              0.000
 Translational            0.889              2.981             39.405
 Rotational               0.889              2.981             27.149
 Vibrational             56.003             17.655             16.920
 Vibration     1          0.596              1.976              4.699
 Vibration     2          0.610              1.930              3.048
 Vibration     3          0.626              1.879              2.430
 Vibration     4          0.650              1.802              1.913
 Vibration     5          0.688              1.687              1.457
 Vibration     6          0.783              1.426              0.891
 Vibration     7          0.827              1.317              0.738
 Vibration     8          0.966              1.016              0.437

 Optimization completed.
    -- Stationary point found.
 Normal termination of Gaussian 16 at Wed Dec 23 22:04:37 2020.
