 Gaussian 16, Revision B.01,
 Gaussian 16:  ES64L-G16RevB.01 20-Dec-2017

 --------------------------------------------------------------
 # B3LYP/6-31+G* OPT=(TS, CALCALL, NOEIGEN, maxcycles=100) Freq
 --------------------------------------------------------------

 ----------
 pp_19_1 TS
 ----------
 Symbolic Z-matrix:
 Charge =  0 Multiplicity = 1

 SCF Done:  E(RB3LYP) =  -343.356054133     A.U. after   14 cycles
 SCF Done:  E(RB3LYP) =  -343.370777475     A.U. after   14 cycles
 SCF Done:  E(RB3LYP) =  -343.377078960     A.U. after   13 cycles
 SCF Done:  E(RB3LYP) =  -343.388110353     A.U. after   13 cycles
 SCF Done:  E(RB3LYP) =  -343.394982344     A.U. after   13 cycles
 SCF Done:  E(RB3LYP) =  -343.397558005     A.U. after   13 cycles
 SCF Done:  E(RB3LYP) =  -343.397985581     A.U. after   12 cycles
 SCF Done:  E(RB3LYP) =  -343.398078248     A.U. after   12 cycles
 SCF Done:  E(RB3LYP) =  -343.398133249     A.U. after   12 cycles
 SCF Done:  E(RB3LYP) =  -343.398609546     A.U. after   13 cycles
 SCF Done:  E(RB3LYP) =  -343.399769105     A.U. after   14 cycles
 SCF Done:  E(RB3LYP) =  -343.401217148     A.U. after   13 cycles
 SCF Done:  E(RB3LYP) =  -343.402572651     A.U. after   13 cycles
 SCF Done:  E(RB3LYP) =  -343.403655553     A.U. after   13 cycles
 SCF Done:  E(RB3LYP) =  -343.404425539     A.U. after   13 cycles
 SCF Done:  E(RB3LYP) =  -343.404888279     A.U. after   13 cycles
 SCF Done:  E(RB3LYP) =  -343.405088583     A.U. after   12 cycles
 SCF Done:  E(RB3LYP) =  -343.405131113     A.U. after   12 cycles
 SCF Done:  E(RB3LYP) =  -343.405132925     A.U. after   11 cycles
 Optimization completed.
    -- Stationary point found.
 ******    1 imaginary frequencies (negative Signs) ******
    1 imaginary frequencies ignored.
 Normal termination of Gaussian 16 at Wed Dec 23 22:07:06 2020.

 ---------------------------------------------------------------------
 #N Geom=AllCheck Guess=TCheck SCRF=Check GenChk RB3LYP/6-31+G(d) Freq
 ---------------------------------------------------------------------

 Structure from the checkpoint file:  "/scratch/bell/zhao922/YARP/paper-example/KHP-network/pp_0/TS-folder/Gau-19292.chk"
 ----------
 pp_19_1 TS
 ----------
 Charge =  0 Multiplicity = 1

                         Standard orientation:
 ---------------------------------------------------------------------
 Center     Atomic      Atomic             Coordinates (Angstroms)
 Number     Number       Type             X           Y           Z
 ---------------------------------------------------------------------
      1          6           0        0.074152    1.365384    0.405765
      2          6           0        0.915090    0.886792   -0.539809
      3          6           0        1.863838   -0.217582   -0.279793
      4          8           0       -2.333747    0.204589    0.274438
      5          8           0       -1.621400   -1.011388   -0.285849
      6          8           0        1.760570   -1.025530    0.631277
      7          1           0       -2.037143   -1.121191   -1.161712
      8          1           0        0.048354    0.937851    1.403612
      9          1           0       -0.570702    2.215386    0.217990
     10          1           0        2.715310   -0.288369   -0.988699
     11          1           0        0.986908    1.370421   -1.513684
     12          1           0       -0.704584   -0.663024   -0.433416
 ---------------------------------------------------------------------

 SCF Done:  E(RB3LYP) =  -343.405132925     A.U. after    1 cycles

 The electronic state is 1-A.
 Alpha  occ. eigenvalues --  -19.30952 -19.17181 -19.15143 -10.29946 -10.23756
 Alpha  occ. eigenvalues --  -10.22436  -1.16593  -1.06371  -0.85748  -0.81330
 Alpha  occ. eigenvalues --   -0.67857  -0.64871  -0.56374  -0.52629  -0.51718
 Alpha  occ. eigenvalues --   -0.46638  -0.45783  -0.44661  -0.41587  -0.40231
 Alpha  occ. eigenvalues --   -0.31138  -0.28017  -0.25634  -0.24584
 Alpha virt. eigenvalues --   -0.09000  -0.03868  -0.00750   0.01099   0.01898
 Alpha virt. eigenvalues --    0.03141   0.04158   0.06272   0.06551   0.07233
 Alpha virt. eigenvalues --    0.07548   0.10225   0.10772   0.11271   0.12697

 Mulliken charges:
               1
     1  C   -0.610734
     2  C    0.065225
     3  C    0.039499
     4  O   -0.378483
     5  O   -0.650506
     6  O   -0.404967
     7  H    0.564868
     8  H    0.256666
     9  H    0.233992
    10  H    0.162896
    11  H    0.194347
    12  H    0.527198
 Sum of Mulliken charges =   0.00000

 Dipole moment (field-independent basis, Debye):
    X=              1.4074    Y=              0.6345    Z=             -4.3384  Tot=              4.6049
 Quadrupole moment (field-independent basis, Debye-Ang):
   XX=            -44.7188   YY=            -35.4729   ZZ=            -33.3125
   XY=              5.8766   XZ=              2.2244   YZ=              5.0187

  Exact polarizability:  71.326  -6.418  54.358  -7.721  -0.135  48.972
 Approx polarizability:  94.527 -15.401  81.471 -15.077  -0.143  73.516

 ******    1 imaginary frequencies (negative Signs) ******

                      1                      2                      3
                      A                      A                      A
 Frequencies --    -89.0190                60.6154                88.9931
 Red. masses --      4.0815                 9.4603                 5.3243
 Frc consts  --      0.0191                 0.0205                 0.0248
 IR Inten    --     30.2198                 8.1940                24.6792

                      4                      5                      6
                      A                      A                      A
 Frequencies --    142.4117               172.8918               232.7309
 Red. masses --      4.1440                 3.3713                 1.3908
 Frc consts  --      0.0495                 0.0594                 0.0444
 IR Inten    --     33.8280                15.2310                80.4779

                      7                      8                      9
                      A                      A                      A
 Frequencies --    288.6858               298.6299               566.4695
 Red. masses --      2.9992                 1.5685                 1.2969
 Frc consts  --      0.1473                 0.0824                 0.2452
 IR Inten    --     33.9957                13.2517                18.6913

                     10                     11                     12
                      A                      A                      A
 Frequencies --    704.2579               739.0974               939.3231
 Red. masses --      2.4130                10.0675                 2.9216
 Frc consts  --      0.7051                 3.2402                 1.5188
 IR Inten    --      7.9563                49.3462                43.7281

                     13                     14                     15
                      A                      A                      A
 Frequencies --    988.6693               996.0272              1018.5835
 Red. masses --      1.1558                 1.1863                 1.5365
 Frc consts  --      0.6656                 0.6934                 0.9392
 IR Inten    --     69.3883                10.3113                22.5342

                     16                     17                     18
                      A                      A                      A
 Frequencies --   1020.2235              1035.6561              1084.8250
 Red. masses --      1.2772                 1.1713                 1.5342
 Frc consts  --      0.7833                 0.7402                 1.0637
 IR Inten    --     52.0318                25.8463                 4.4577

                     19                     20                     21
                      A                      A                      A
 Frequencies --   1313.9837              1429.7778              1454.8374
 Red. masses --      1.3551                 1.2071                 1.3046
 Frc consts  --      1.3785                 1.4538                 1.6269
 IR Inten    --     11.3684                 1.6054                64.6161

                     22                     23                     24
                      A                      A                      A
 Frequencies --   1628.3385              1653.8511              1764.7998
 Red. masses --      3.5402                 1.0824                 7.4956
 Frc consts  --      5.5305                 1.7443                13.7546
 IR Inten    --    135.5550                34.8221               151.4766

                     25                     26                     27
                      A                      A                      A
 Frequencies --   2940.5867              3166.8035              3198.8420
 Red. masses --      1.0840                 1.0887                 1.0610
 Frc consts  --      5.5229                 6.4327                 6.3968
 IR Inten    --    139.9945                12.8599                 1.5234

                     28                     29                     30
                      A                      A                      A
 Frequencies --   3292.3480              3385.0589              3703.7161
 Red. masses --      1.1176                 1.0591                 1.0723
 Frc consts  --      7.1377                 7.1501                 8.6662
 IR Inten    --      0.2528               320.0491               185.3960

 - Thermochemistry -
 -------------------
 Temperature   298.150 Kelvin.  Pressure   1.00000 Atm.
 Atom     1 has atomic number  6 and mass  12.00000

 Molecular mass:    90.03169 amu.
 Principal axes and moments of inertia in atomic units:
                           1         2         3
     Eigenvalues --   349.08550 950.113471141.68058
           X            0.99990   0.01269  -0.00675
           Y           -0.01250   0.99953   0.02806
           Z            0.00710  -0.02798   0.99958
 This molecule is an asymmetric top.
 Rotational symmetry number  1.
 Rotational temperatures (Kelvin)      0.24812     0.09116     0.07587
 Rotational constants (GHZ):           5.16991     1.89950     1.58078
    1 imaginary frequencies ignored.
 Zero-point vibrational energy     235132.2 (Joules/Mol)
                                   56.19795 (Kcal/Mol)
 Warning -- explicit consideration of   8 degrees of freedom as
           vibrations may cause significant error
 Vibrational temperatures:     87.21   128.04   204.90   248.75   334.85
          (Kelvin)            415.35   429.66   815.02  1013.27  1063.40
                             1351.48  1422.47  1433.06  1465.51  1467.87
                             1490.08  1560.82  1890.53  2057.13  2093.19
                             2342.82  2379.52  2539.15  4230.85  4556.32
                             4602.42  4736.95  4870.34  5328.82

 Zero-point correction=                           0.089557 (Hartree/Particle)
 Thermal correction to Energy=                    0.097255
 Thermal correction to Enthalpy=                  0.098199
 Thermal correction to Gibbs Free Energy=         0.057018
 Sum of electronic and zero-point Energies=           -343.315576
 Sum of electronic and thermal Energies=              -343.307878
 Sum of electronic and thermal Enthalpies=            -343.306934
 Sum of electronic and thermal Free Energies=         -343.348115

                     E (Thermal)             CV                S
                      KCal/Mol        Cal/Mol-Kelvin    Cal/Mol-Kelvin
 Total                   61.028             24.532             86.672
 Electronic               0.000              0.000              0.000
 Translational            0.889              2.981             39.405
 Rotational               0.889              2.981             27.429
 Vibrational             59.251             18.570             19.839
 Vibration     1          0.597              1.973              4.437
 Vibration     2          0.602              1.957              3.682
 Vibration     3          0.616              1.911              2.771
 Vibration     4          0.626              1.876              2.404
 Vibration     5          0.653              1.791              1.858
 Vibration     6          0.685              1.695              1.482
 Vibration     7          0.692              1.676              1.425
 Vibration     8          0.922              1.104              0.511

 Optimization completed.
    -- Stationary point found.
 Normal termination of Gaussian 16 at Wed Dec 23 22:07:22 2020.
