 Gaussian 16, Revision B.01,
 Gaussian 16:  ES64L-G16RevB.01 20-Dec-2017

 --------------------------------------------------------------
 # B3LYP/6-31+G* OPT=(TS, CALCALL, NOEIGEN, maxcycles=100) Freq
 --------------------------------------------------------------

 ----------
 pp_17_0 TS
 ----------
 Symbolic Z-matrix:
 Charge =  0 Multiplicity = 1

 SCF Done:  E(RB3LYP) =  -343.237076165     A.U. after   19 cycles
 SCF Done:  E(RB3LYP) =  -343.280366049     A.U. after   16 cycles
 SCF Done:  E(RB3LYP) =  -343.311765234     A.U. after   15 cycles
 SCF Done:  E(RB3LYP) =  -343.333091067     A.U. after   14 cycles
 SCF Done:  E(RB3LYP) =  -343.349143289     A.U. after   14 cycles
 SCF Done:  E(RB3LYP) =  -343.363630211     A.U. after   14 cycles
 SCF Done:  E(RB3LYP) =  -343.370157465     A.U. after   14 cycles
 SCF Done:  E(RB3LYP) =  -343.376093838     A.U. after   14 cycles
 SCF Done:  E(RB3LYP) =  -343.380920940     A.U. after   14 cycles
 SCF Done:  E(RB3LYP) =  -343.386687884     A.U. after   14 cycles
 SCF Done:  E(RB3LYP) =  -343.390266538     A.U. after   14 cycles
 SCF Done:  E(RB3LYP) =  -343.390895070     A.U. after   13 cycles
 SCF Done:  E(RB3LYP) =  -343.390956428     A.U. after   12 cycles
 SCF Done:  E(RB3LYP) =  -343.390960084     A.U. after   12 cycles
 SCF Done:  E(RB3LYP) =  -343.390960114     A.U. after   10 cycles
 Optimization completed.
    -- Stationary point found.
 ******    1 imaginary frequencies (negative Signs) ******
    1 imaginary frequencies ignored.
 Normal termination of Gaussian 16 at Wed Dec 23 22:06:00 2020.

 ---------------------------------------------------------------------
 #N Geom=AllCheck Guess=TCheck SCRF=Check GenChk RB3LYP/6-31+G(d) Freq
 ---------------------------------------------------------------------

 Structure from the checkpoint file:  "/scratch/bell/zhao922/YARP/paper-example/KHP-network/pp_0/TS-folder/Gau-18956.chk"
 ----------
 pp_17_0 TS
 ----------
 Charge =  0 Multiplicity = 1

                         Standard orientation:
 ---------------------------------------------------------------------
 Center     Atomic      Atomic             Coordinates (Angstroms)
 Number     Number       Type             X           Y           Z
 ---------------------------------------------------------------------
      1          6           0        0.721071    0.410339   -0.090672
      2          6           0       -0.885735   -0.958889   -0.218421
      3          6           0       -1.862208   -0.050882    0.410331
      4          8           0        1.236469   -0.758436    0.036914
      5          8           0        2.719389    0.500452   -0.048013
      6          8           0       -2.493744    0.795768   -0.205027
      7          1           0        2.994493    0.492435    0.890091
      8          1           0        0.579261    0.865159   -1.073727
      9          1           0        0.488419    1.023786    0.784497
     10          1           0       -1.994348   -0.167369    1.505026
     11          1           0       -0.683685   -1.882496    0.317353
     12          1           0       -0.919827   -1.037195   -1.301664
 ---------------------------------------------------------------------

 SCF Done:  E(RB3LYP) =  -343.390960114     A.U. after    1 cycles

 The electronic state is 1-A.
 Alpha  occ. eigenvalues --  -19.24970 -19.18279 -19.17112 -10.33594 -10.30924
 Alpha  occ. eigenvalues --  -10.26000  -1.10542  -1.07261  -0.95136  -0.77865
 Alpha  occ. eigenvalues --   -0.68377  -0.61125  -0.53711  -0.51553  -0.49729
 Alpha  occ. eigenvalues --   -0.49079  -0.46853  -0.43681  -0.42550  -0.40100
 Alpha  occ. eigenvalues --   -0.32813  -0.31235  -0.29186  -0.26212
 Alpha virt. eigenvalues --   -0.15382  -0.05586  -0.01678  -0.00060   0.01778
 Alpha virt. eigenvalues --    0.01971   0.02992   0.05183   0.06103   0.07200
 Alpha virt. eigenvalues --    0.07333   0.08214   0.11140   0.11715   0.13674

 Mulliken charges:
               1
     1  C   -0.134384
     2  C   -0.529687
     3  C    0.180934
     4  O   -0.078923
     5  O   -0.677440
     6  O   -0.354030
     7  H    0.444073
     8  H    0.244223
     9  H    0.216723
    10  H    0.175564
    11  H    0.247221
    12  H    0.265726
 Sum of Mulliken charges =   0.00000

 Dipole moment (field-independent basis, Debye):
    X=             -0.8952    Y=             -1.2063    Z=              2.2029  Tot=              2.6664
 Quadrupole moment (field-independent basis, Debye-Ang):
   XX=            -49.9888   YY=            -37.0453   ZZ=            -32.7980
   XY=              5.5994   XZ=              2.6042   YZ=              1.3738

  Exact polarizability: 134.794  12.644  53.701   2.613  -1.020  45.012
 Approx polarizability: 385.728  56.043  95.972  11.350  -4.016  62.920

 ******    1 imaginary frequencies (negative Signs) ******

                      1                      2                      3
                      A                      A                      A
 Frequencies --   -901.5918                49.8617               103.9938
 Red. masses --      9.2436                 3.0299                 6.1304
 Frc consts  --      4.4270                 0.0044                 0.0391
 IR Inten    --     94.7696                19.4242                 6.6926

                      4                      5                      6
                      A                      A                      A
 Frequencies --    170.3110               207.9147               237.5480
 Red. masses --      3.3481                 5.3981                 4.9164
 Frc consts  --      0.0572                 0.1375                 0.1635
 IR Inten    --      0.4008                 0.3635                 2.9888

                      7                      8                      9
                      A                      A                      A
 Frequencies --    324.4257               436.0039               503.5019
 Red. masses --      3.7526                 7.2250                 2.3858
 Frc consts  --      0.2327                 0.8092                 0.3564
 IR Inten    --      1.5703               370.4229                10.0461

                     10                     11                     12
                      A                      A                      A
 Frequencies --    579.9193               694.0388               808.0831
 Red. masses --      1.1418                 1.1291                 1.1349
 Frc consts  --      0.2262                 0.3205                 0.4366
 IR Inten    --    129.0562                63.8907                 0.8223

                     13                     14                     15
                      A                      A                      A
 Frequencies --    849.6596               950.5654              1007.4966
 Red. masses --      1.2183                 1.3680                 1.5102
 Frc consts  --      0.5182                 0.7283                 0.9032
 IR Inten    --      9.3964                 4.8732                82.6483

                     16                     17                     18
                      A                      A                      A
 Frequencies --   1047.2786              1113.0459              1134.4303
 Red. masses --      1.4358                 1.0920                 2.1378
 Frc consts  --      0.9278                 0.7971                 1.6210
 IR Inten    --      4.7158                 0.6485               150.4505

                     19                     20                     21
                      A                      A                      A
 Frequencies --   1202.6242              1415.3500              1431.6463
 Red. masses --      1.3178                 1.1718                 2.4064
 Frc consts  --      1.1229                 1.3831                 2.9060
 IR Inten    --      6.2370                 3.0219                47.3752

                     22                     23                     24
                      A                      A                      A
 Frequencies --   1470.1632              1580.6863              1732.5454
 Red. masses --      1.1800                 1.5875                 8.8162
 Frc consts  --      1.5026                 2.3370                15.5920
 IR Inten    --     15.9035                21.6689               314.1272

                     25                     26                     27
                      A                      A                      A
 Frequencies --   2956.8036              3081.0137              3163.4338
 Red. masses --      1.0847                 1.0461                 1.0535
 Frc consts  --      5.5873                 5.8510                 6.2117
 IR Inten    --    108.8419                14.8176                 3.2920

                     28                     29                     30
                      A                      A                      A
 Frequencies --   3191.1991              3263.6251              3693.3173
 Red. masses --      1.1260                 1.1173                 1.0676
 Frc consts  --      6.7563                 7.0116                 8.5801
 IR Inten    --     10.9020                 0.5833                65.1322

 - Thermochemistry -
 -------------------
 Temperature   298.150 Kelvin.  Pressure   1.00000 Atm.
 Atom     1 has atomic number  6 and mass  12.00000

 Molecular mass:    90.03169 amu.
 Principal axes and moments of inertia in atomic units:
                           1         2         3
     Eigenvalues --   189.777151159.071321276.98923
           X            0.99983   0.01838   0.00175
           Y           -0.01842   0.99953   0.02435
           Z           -0.00130  -0.02438   0.99970
 This molecule is an asymmetric top.
 Rotational symmetry number  1.
 Rotational temperatures (Kelvin)      0.45640     0.07473     0.06783
 Rotational constants (GHZ):           9.50979     1.55706     1.41328
    1 imaginary frequencies ignored.
 Zero-point vibrational energy     229685.9 (Joules/Mol)
                                   54.89625 (Kcal/Mol)
 Warning -- explicit consideration of   9 degrees of freedom as
           vibrations may cause significant error
 Vibrational temperatures:     71.74   149.62   245.04   299.14   341.78
          (Kelvin)            466.78   627.31   724.43   834.37   998.57
                             1162.65  1222.47  1367.65  1449.56  1506.80
                             1601.42  1632.19  1730.31  2036.37  2059.82
                             2115.24  2274.25  2492.75  4254.18  4432.89
                             4551.48  4591.42  4695.63  5313.86

 Zero-point correction=                           0.087483 (Hartree/Particle)
 Thermal correction to Energy=                    0.095052
 Thermal correction to Enthalpy=                  0.095996
 Thermal correction to Gibbs Free Energy=         0.055375
 Sum of electronic and zero-point Energies=           -343.303477
 Sum of electronic and thermal Energies=              -343.295908
 Sum of electronic and thermal Enthalpies=            -343.294964
 Sum of electronic and thermal Free Energies=         -343.335585

                     E (Thermal)             CV                S
                      KCal/Mol        Cal/Mol-Kelvin    Cal/Mol-Kelvin
 Total                   59.646             24.986             85.494
 Electronic               0.000              0.000              0.000
 Translational            0.889              2.981             39.405
 Rotational               0.889              2.981             27.132
 Vibrational             57.869             19.024             18.957
 Vibration     1          0.595              1.978              4.823
 Vibration     2          0.605              1.946              3.378
 Vibration     3          0.625              1.879              2.432
 Vibration     4          0.641              1.829              2.062
 Vibration     5          0.656              1.783              1.821
 Vibration     6          0.709              1.627              1.288
 Vibration     7          0.796              1.392              0.839
 Vibration     8          0.859              1.242              0.649
 Vibration     9          0.937              1.075              0.486

 Optimization completed.
    -- Stationary point found.
 Normal termination of Gaussian 16 at Wed Dec 23 22:06:16 2020.
