 Gaussian 16, Revision B.01,
 Gaussian 16:  ES64L-G16RevB.01 20-Dec-2017

 --------------------------------------------------------------
 # B3LYP/6-31+G* OPT=(TS, CALCALL, NOEIGEN, maxcycles=100) Freq
 --------------------------------------------------------------

 ----------
 pp_13_3 TS
 ----------
 Symbolic Z-matrix:
 Charge =  0 Multiplicity = 1

 SCF Done:  E(RB3LYP) =  -343.270672003     A.U. after   18 cycles
 SCF Done:  E(RB3LYP) =  -343.290460826     A.U. after   14 cycles
 SCF Done:  E(RB3LYP) =  -343.307515717     A.U. after   14 cycles
 SCF Done:  E(RB3LYP) =  -343.320644299     A.U. after   14 cycles
 SCF Done:  E(RB3LYP) =  -343.329488247     A.U. after   14 cycles
 SCF Done:  E(RB3LYP) =  -343.335769688     A.U. after   13 cycles
 SCF Done:  E(RB3LYP) =  -343.339773484     A.U. after   13 cycles
 SCF Done:  E(RB3LYP) =  -343.340667931     A.U. after   13 cycles
 SCF Done:  E(RB3LYP) =  -343.340688581     A.U. after   11 cycles
 SCF Done:  E(RB3LYP) =  -343.340688588     A.U. after    8 cycles
 Optimization completed.
    -- Stationary point found.
 ******    1 imaginary frequencies (negative Signs) ******
    1 imaginary frequencies ignored.
 Normal termination of Gaussian 16 at Wed Dec 23 22:04:32 2020.

 ---------------------------------------------------------------------
 #N Geom=AllCheck Guess=TCheck SCRF=Check GenChk RB3LYP/6-31+G(d) Freq
 ---------------------------------------------------------------------

 Structure from the checkpoint file:  "/scratch/bell/zhao922/YARP/paper-example/KHP-network/pp_0/TS-folder/Gau-4813.chk"
 ----------
 pp_13_3 TS
 ----------
 Charge =  0 Multiplicity = 1

                         Standard orientation:
 ---------------------------------------------------------------------
 Center     Atomic      Atomic             Coordinates (Angstroms)
 Number     Number       Type             X           Y           Z
 ---------------------------------------------------------------------
      1          6           0        0.362671    0.031075    0.291039
      2          6           0       -0.803700    0.877286    0.056818
      3          6           0       -2.055826    0.218863   -0.160976
      4          8           0        1.489070    0.416946   -0.364856
      5          8           0        2.585418   -0.497443    0.032835
      6          8           0       -2.252622   -0.999504   -0.063122
      7          1           0        2.991002   -0.632679   -0.844330
      8          1           0        0.128633   -1.034574    0.333152
      9          1           0        0.840038    0.096800    1.633933
     10          1           0       -2.895128    0.893141   -0.427039
     11          1           0       -0.670629    1.946326   -0.061303
     12          1           0        0.012284    0.607661    1.405442
 ---------------------------------------------------------------------

 SCF Done:  E(RB3LYP) =  -343.340688588     A.U. after    1 cycles

 The electronic state is 1-A.
 Alpha  occ. eigenvalues --  -19.28313 -19.25913 -19.12152 -10.35085 -10.26058
 Alpha  occ. eigenvalues --  -10.19911  -1.18017  -1.01422  -0.99513  -0.82876
 Alpha  occ. eigenvalues --   -0.68925  -0.60542  -0.58932  -0.55797  -0.52918
 Alpha  occ. eigenvalues --   -0.47598  -0.44435  -0.43243  -0.39829  -0.39487
 Alpha  occ. eigenvalues --   -0.37005  -0.32647  -0.24456  -0.22972
 Alpha virt. eigenvalues --   -0.06608  -0.04410  -0.02055   0.00813   0.01959
 Alpha virt. eigenvalues --    0.03714   0.05232   0.05865   0.07025   0.07539
 Alpha virt. eigenvalues --    0.08934   0.10659   0.11308   0.12052   0.12986

 Mulliken charges:
               1
     1  C   -0.537312
     2  C   -0.052259
     3  C    0.068458
     4  O   -0.005403
     5  O   -0.521010
     6  O   -0.501523
     7  H    0.485325
     8  H    0.324799
     9  H    0.104004
    10  H    0.149728
    11  H    0.214052
    12  H    0.271140
 Sum of Mulliken charges =   0.00000

 Dipole moment (field-independent basis, Debye):
    X=              3.6301    Y=              1.7051    Z=              0.2336  Tot=              4.0174
 Quadrupole moment (field-independent basis, Debye-Ang):
   XX=            -40.7296   YY=            -38.7864   ZZ=            -34.6873
   XY=             -8.2722   XZ=             -3.9832   YZ=              1.6400

  Exact polarizability:  96.161  -5.932  52.641   9.357  -1.440  49.437
 Approx polarizability: 141.691  -7.454  81.664  23.317  -4.009  78.583

 ******    1 imaginary frequencies (negative Signs) ******

                      1                      2                      3
                      A                      A                      A
 Frequencies --  -1886.4259                98.7719               139.1090
 Red. masses --      1.1557                 2.4405                 1.7283
 Frc consts  --      2.4230                 0.0140                 0.0197
 IR Inten    --    290.0622                16.9710                96.9063

                      4                      5                      6
                      A                      A                      A
 Frequencies --    152.9447               204.4688               272.6398
 Red. masses --      2.4438                 3.3230                 3.1617
 Frc consts  --      0.0337                 0.0819                 0.1385
 IR Inten    --     48.7670                 7.2968                 4.6169

                      7                      8                      9
                      A                      A                      A
 Frequencies --    368.1765               475.7930               609.3981
 Red. masses --      2.9343                 4.1424                 1.8959
 Frc consts  --      0.2344                 0.5525                 0.4148
 IR Inten    --     14.8905                22.7258               272.7664

                     10                     11                     12
                      A                      A                      A
 Frequencies --    688.2573               750.9669               823.2365
 Red. masses --      1.3166                 2.8832                 9.8863
 Frc consts  --      0.3675                 0.9580                 3.9476
 IR Inten    --     38.8955                38.3024                34.6396

                     13                     14                     15
                      A                      A                      A
 Frequencies --    969.0378              1008.0949              1036.9480
 Red. masses --      1.4324                 1.5663                 2.2044
 Frc consts  --      0.7925                 0.9378                 1.3965
 IR Inten    --      7.3016                 3.8047                16.6930

                     16                     17                     18
                      A                      A                      A
 Frequencies --   1117.5041              1157.7294              1174.9215
 Red. masses --      1.7485                 1.2858                 2.4728
 Frc consts  --      1.2865                 1.0154                 2.0112
 IR Inten    --     81.8366                40.7931               237.0761

                     19                     20                     21
                      A                      A                      A
 Frequencies --   1279.7310              1376.6059              1403.9817
 Red. masses --      1.3299                 1.2548                 1.3073
 Frc consts  --      1.2832                 1.4010                 1.5183
 IR Inten    --     62.9524               236.5262                32.4286

                     22                     23                     24
                      A                      A                      A
 Frequencies --   1437.0407              1449.6151              1610.6765
 Red. masses --      1.3820                 1.4594                 1.5842
 Frc consts  --      1.6815                 1.8069                 2.4214
 IR Inten    --    262.0091                50.2263               837.9388

                     25                     26                     27
                      A                      A                      A
 Frequencies --   1735.2476              2006.0813              2945.4150
 Red. masses --      2.2175                 1.0559                 1.0837
 Frc consts  --      3.9341                 2.5036                 5.5390
 IR Inten    --    240.0093               198.7076               152.5647

                     28                     29                     30
                      A                      A                      A
 Frequencies --   3160.1842              3235.8080              3704.4463
 Red. masses --      1.0906                 1.0898                 1.0681
 Frc consts  --      6.4173                 6.7229                 8.6362
 IR Inten    --      5.1254                 1.2002               102.4085

 - Thermochemistry -
 -------------------
 Temperature   298.150 Kelvin.  Pressure   1.00000 Atm.
 Atom     1 has atomic number  6 and mass  12.00000

 Molecular mass:    90.03169 amu.
 Principal axes and moments of inertia in atomic units:
                           1         2         3
     Eigenvalues --   171.734771112.647771218.58941
           X            0.99976  -0.02190   0.00017
           Y            0.02189   0.99946   0.02470
           Z           -0.00071  -0.02469   0.99969
 This molecule is an asymmetric top.
 Rotational symmetry number  1.
 Rotational temperatures (Kelvin)      0.50435     0.07784     0.07108
 Rotational constants (GHZ):          10.50889     1.62202     1.48101
    1 imaginary frequencies ignored.
 Zero-point vibrational energy     217677.5 (Joules/Mol)
                                   52.02616 (Kcal/Mol)
 Warning -- explicit consideration of   8 degrees of freedom as
           vibrations may cause significant error
 Vibrational temperatures:    142.11   200.15   220.05   294.19   392.27
          (Kelvin)            529.72   684.56   876.79   990.25  1080.47
                             1184.45  1394.23  1450.42  1491.94  1607.84
                             1665.71  1690.45  1841.25  1980.63  2020.02
                             2067.58  2085.67  2317.40  2496.63  2886.30
                             4237.80  4546.80  4655.61  5329.87

 Zero-point correction=                           0.082909 (Hartree/Particle)
 Thermal correction to Energy=                    0.090027
 Thermal correction to Enthalpy=                  0.090971
 Thermal correction to Gibbs Free Energy=         0.051775
 Sum of electronic and zero-point Energies=           -343.257780
 Sum of electronic and thermal Energies=              -343.250661
 Sum of electronic and thermal Enthalpies=            -343.249717
 Sum of electronic and thermal Free Energies=         -343.288914

                     E (Thermal)             CV                S
                      KCal/Mol        Cal/Mol-Kelvin    Cal/Mol-Kelvin
 Total                   56.493             23.831             82.496
 Electronic               0.000              0.000              0.000
 Translational            0.889              2.981             39.405
 Rotational               0.889              2.981             26.946
 Vibrational             54.715             17.869             16.145
 Vibration     1          0.604              1.950              3.478
 Vibration     2          0.615              1.914              2.816
 Vibration     3          0.619              1.899              2.635
 Vibration     4          0.640              1.834              2.093
 Vibration     5          0.676              1.724              1.579
 Vibration     6          0.741              1.538              1.087
 Vibration     7          0.832              1.304              0.721
 Vibration     8          0.968              1.012              0.434

 Optimization completed.
    -- Stationary point found.
 Normal termination of Gaussian 16 at Wed Dec 23 22:04:48 2020.
