 Gaussian 16, Revision B.01,
 Gaussian 16:  ES64L-G16RevB.01 20-Dec-2017

 --------------------------------------------------------------
 # B3LYP/6-31+G* OPT=(TS, CALCALL, NOEIGEN, maxcycles=100) Freq
 --------------------------------------------------------------

 ----------
 pp_19_0 TS
 ----------
 Symbolic Z-matrix:
 Charge =  0 Multiplicity = 1

 SCF Done:  E(RB3LYP) =  -343.357516139     A.U. after   14 cycles
 SCF Done:  E(RB3LYP) =  -343.374721483     A.U. after   14 cycles
 SCF Done:  E(RB3LYP) =  -343.384249092     A.U. after   14 cycles
 SCF Done:  E(RB3LYP) =  -343.386285313     A.U. after   12 cycles
 SCF Done:  E(RB3LYP) =  -343.386863184     A.U. after   13 cycles
 SCF Done:  E(RB3LYP) =  -343.387037367     A.U. after   12 cycles
 SCF Done:  E(RB3LYP) =  -343.387047008     A.U. after   12 cycles
 Optimization completed.
    -- Stationary point found.
 ******    1 imaginary frequencies (negative Signs) ******
    1 imaginary frequencies ignored.
 Normal termination of Gaussian 16 at Wed Dec 23 22:03:36 2020.

 ---------------------------------------------------------------------
 #N Geom=AllCheck Guess=TCheck SCRF=Check GenChk RB3LYP/6-31+G(d) Freq
 ---------------------------------------------------------------------

 Structure from the checkpoint file:  "/scratch/bell/zhao922/YARP/paper-example/KHP-network/pp_0/TS-folder/Gau-19990.chk"
 ----------
 pp_19_0 TS
 ----------
 Charge =  0 Multiplicity = 1

                         Standard orientation:
 ---------------------------------------------------------------------
 Center     Atomic      Atomic             Coordinates (Angstroms)
 Number     Number       Type             X           Y           Z
 ---------------------------------------------------------------------
      1          6           0       -0.752625    0.983959    0.211070
      2          6           0        0.577385    0.365719    0.564328
      3          6           0        1.677836    0.303552   -0.335296
      4          8           0       -1.564390    0.157971   -0.638603
      5          8           0       -2.076915   -0.936072    0.166022
      6          8           0        2.402383   -0.723509   -0.088322
      7          1           0       -1.379852   -1.608718    0.045812
      8          1           0       -1.326814    1.239820    1.107484
      9          1           0       -0.640771    1.890828   -0.401324
     10          1           0        1.948956    0.957308   -1.169672
     11          1           0        1.372281   -0.941084    0.676889
     12          1           0        0.921997    0.555346    1.587418
 ---------------------------------------------------------------------

 SCF Done:  E(RB3LYP) =  -343.387047008     A.U. after    1 cycles

 The electronic state is 1-A.
 Alpha  occ. eigenvalues --  -19.21745 -19.21438 -19.21158 -10.31766 -10.25595
 Alpha  occ. eigenvalues --  -10.20415  -1.12463  -1.09981  -0.92085  -0.78459
 Alpha  occ. eigenvalues --   -0.67490  -0.62919  -0.54926  -0.51373  -0.48811
 Alpha  occ. eigenvalues --   -0.47980  -0.46386  -0.43473  -0.42016  -0.37296
 Alpha  occ. eigenvalues --   -0.36282  -0.30176  -0.28626  -0.25283
 Alpha virt. eigenvalues --   -0.08268  -0.00702   0.00716   0.01149   0.01861
 Alpha virt. eigenvalues --    0.03023   0.05151   0.05890   0.06099   0.07880
 Alpha virt. eigenvalues --    0.08519   0.09623   0.12258   0.12480   0.14822

 Mulliken charges:
               1
     1  C   -0.297651
     2  C   -0.548133
     3  C    0.192339
     4  O   -0.142923
     5  O   -0.485542
     6  O   -0.371291
     7  H    0.456254
     8  H    0.203977
     9  H    0.199794
    10  H    0.208604
    11  H    0.330103
    12  H    0.254468
 Sum of Mulliken charges =  -0.00000

 Dipole moment (field-independent basis, Debye):
    X=              1.9044    Y=              1.4840    Z=              0.5779  Tot=              2.4825
 Quadrupole moment (field-independent basis, Debye-Ang):
   XX=            -47.8616   YY=            -32.4384   ZZ=            -35.6636
   XY=              2.6167   XZ=             -1.6527   YZ=             -0.6253

  Exact polarizability:  64.006  -3.480  54.794  -5.261  -3.774  45.897
 Approx polarizability:  88.186  -9.906  83.792 -10.807  -8.482  67.814

 ******    1 imaginary frequencies (negative Signs) ******

                      1                      2                      3
                      A                      A                      A
 Frequencies --  -2144.7636                62.9032               128.3971
 Red. masses --      1.0985                 2.9844                 2.8756
 Frc consts  --      2.9771                 0.0070                 0.0279
 IR Inten    --    613.5033                 0.9328                18.2296

                      4                      5                      6
                      A                      A                      A
 Frequencies --    173.9813               224.4966               316.6035
 Red. masses --      5.4581                 1.2516                 3.4225
 Frc consts  --      0.0973                 0.0372                 0.2021
 IR Inten    --     16.4993               121.0721                24.3088

                      7                      8                      9
                      A                      A                      A
 Frequencies --    403.4137               560.5091               640.0155
 Red. masses --      2.4773                 3.5071                 2.2433
 Frc consts  --      0.2375                 0.6492                 0.5414
 IR Inten    --     19.0451                 5.5139               151.8684

                     10                     11                     12
                      A                      A                      A
 Frequencies --    720.7889               869.0403               934.2664
 Red. masses --      2.1432                 5.8224                 2.0252
 Frc consts  --      0.6560                 2.5908                 1.0415
 IR Inten    --     28.1856                27.8568                 6.3115

                     13                     14                     15
                      A                      A                      A
 Frequencies --    971.6176               997.6283              1111.7069
 Red. masses --      2.8775                 2.3346                 2.1416
 Frc consts  --      1.6005                 1.3690                 1.5594
 IR Inten    --     18.5775                 3.9649                44.5348

                     16                     17                     18
                      A                      A                      A
 Frequencies --   1161.4550              1188.2577              1276.2559
 Red. masses --      1.3054                 1.4430                 1.3577
 Frc consts  --      1.0375                 1.2004                 1.3030
 IR Inten    --     46.2044                57.7664                16.1947

                     19                     20                     21
                      A                      A                      A
 Frequencies --   1295.4101              1377.1385              1383.8997
 Red. masses --      1.1528                 1.1083                 1.2669
 Frc consts  --      1.1398                 1.2384                 1.4295
 IR Inten    --     21.5174                51.5344                43.7216

                     22                     23                     24
                      A                      A                      A
 Frequencies --   1425.2543              1478.9720              1548.3007
 Red. masses --      2.5226                 1.1186                 3.3211
 Frc consts  --      3.0192                 1.4416                 4.6907
 IR Inten    --     10.4825                 5.9333               265.7425

                     25                     26                     27
                      A                      A                      A
 Frequencies --   1808.1394              3033.1261              3092.5891
 Red. masses --      1.1369                 1.0634                 1.0869
 Frc consts  --      2.1899                 5.7642                 6.1247
 IR Inten    --     24.2091                32.3077                18.4781

                     28                     29                     30
                      A                      A                      A
 Frequencies --   3105.5944              3148.8281              3670.2832
 Red. masses --      1.0966                 1.0933                 1.0684
 Frc consts  --      6.2312                 6.3867                 8.4798
 IR Inten    --     10.6233                16.3180                15.0234

 - Thermochemistry -
 -------------------
 Temperature   298.150 Kelvin.  Pressure   1.00000 Atm.
 Atom     1 has atomic number  6 and mass  12.00000

 Molecular mass:    90.03169 amu.
 Principal axes and moments of inertia in atomic units:
                           1         2         3
     Eigenvalues --   233.85866 979.363101080.88491
           X            0.99999   0.00218  -0.00480
           Y           -0.00223   0.99994  -0.01031
           Z            0.00478   0.01032   0.99994
 This molecule is an asymmetric top.
 Rotational symmetry number  1.
 Rotational temperatures (Kelvin)      0.37037     0.08844     0.08013
 Rotational constants (GHZ):           7.71723     1.84277     1.66969
    1 imaginary frequencies ignored.
 Zero-point vibrational energy     227941.7 (Joules/Mol)
                                   54.47937 (Kcal/Mol)
 Warning -- explicit consideration of   7 degrees of freedom as
           vibrations may cause significant error
 Vibrational temperatures:     90.50   184.73   250.32   323.00   455.52
          (Kelvin)            580.42   806.45   920.84  1037.05  1250.36
                             1344.20  1397.94  1435.36  1599.50  1671.07
                             1709.64  1836.25  1863.81  1981.40  1991.12
                             2050.62  2127.91  2227.66  2601.51  4363.99
                             4449.55  4468.26  4530.46  5280.72

 Zero-point correction=                           0.086818 (Hartree/Particle)
 Thermal correction to Energy=                    0.093704
 Thermal correction to Enthalpy=                  0.094648
 Thermal correction to Gibbs Free Energy=         0.055546
 Sum of electronic and zero-point Energies=           -343.300229
 Sum of electronic and thermal Energies=              -343.293343
 Sum of electronic and thermal Enthalpies=            -343.292399
 Sum of electronic and thermal Free Energies=         -343.331501

                     E (Thermal)             CV                S
                      KCal/Mol        Cal/Mol-Kelvin    Cal/Mol-Kelvin
 Total                   58.800             22.801             82.298
 Electronic               0.000              0.000              0.000
 Translational            0.889              2.981             39.405
 Rotational               0.889              2.981             27.006
 Vibrational             57.023             16.839             15.886
 Vibration     1          0.597              1.972              4.364
 Vibration     2          0.611              1.925              2.970
 Vibration     3          0.627              1.874              2.392
 Vibration     4          0.649              1.804              1.923
 Vibration     5          0.703              1.642              1.328
 Vibration     6          0.769              1.463              0.950
 Vibration     7          0.916              1.117              0.523

 Optimization completed.
    -- Stationary point found.
 Normal termination of Gaussian 16 at Wed Dec 23 22:03:52 2020.
