 Gaussian 16, Revision B.01,
 Gaussian 16:  ES64L-G16RevB.01 20-Dec-2017

 --------------------------------------------------------------
 # B3LYP/6-31+G* OPT=(TS, CALCALL, NOEIGEN, maxcycles=100) Freq
 --------------------------------------------------------------

 ----------
 pp_14_1 TS
 ----------
 Symbolic Z-matrix:
 Charge =  0 Multiplicity = 1

 SCF Done:  E(RB3LYP) =  -343.351481364     A.U. after   17 cycles
 SCF Done:  E(RB3LYP) =  -343.377333994     A.U. after   14 cycles
 SCF Done:  E(RB3LYP) =  -343.390374788     A.U. after   14 cycles
 SCF Done:  E(RB3LYP) =  -343.407955596     A.U. after   14 cycles
 SCF Done:  E(RB3LYP) =  -343.412970675     A.U. after   14 cycles
 SCF Done:  E(RB3LYP) =  -343.414787383     A.U. after   14 cycles
 SCF Done:  E(RB3LYP) =  -343.415896212     A.U. after   14 cycles
 SCF Done:  E(RB3LYP) =  -343.416373554     A.U. after   13 cycles
 SCF Done:  E(RB3LYP) =  -343.416533559     A.U. after   13 cycles
 SCF Done:  E(RB3LYP) =  -343.416559658     A.U. after   12 cycles
 SCF Done:  E(RB3LYP) =  -343.416560406     A.U. after   10 cycles
 Optimization completed.
    -- Stationary point found.
 ******    1 imaginary frequencies (negative Signs) ******
    1 imaginary frequencies ignored.
 Normal termination of Gaussian 16 at Wed Dec 23 22:04:53 2020.

 ---------------------------------------------------------------------
 #N Geom=AllCheck Guess=TCheck SCRF=Check GenChk RB3LYP/6-31+G(d) Freq
 ---------------------------------------------------------------------

 Structure from the checkpoint file:  "/scratch/bell/zhao922/YARP/paper-example/KHP-network/pp_0/TS-folder/Gau-5572.chk"
 ----------
 pp_14_1 TS
 ----------
 Charge =  0 Multiplicity = 1

                         Standard orientation:
 ---------------------------------------------------------------------
 Center     Atomic      Atomic             Coordinates (Angstroms)
 Number     Number       Type             X           Y           Z
 ---------------------------------------------------------------------
      1          6           0       -0.450828    0.455171   -0.525906
      2          6           0        0.702439    0.898112    0.377148
      3          6           0        1.930657    0.027679    0.257799
      4          8           0       -1.655940    0.840420   -0.193301
      5          8           0       -2.012489   -1.010491    0.314292
      6          8           0        1.961808   -1.030009   -0.336555
      7          1           0       -2.741128   -1.603786    0.621257
      8          1           0       -0.253367    0.434594   -1.612301
      9          1           0       -0.637837   -0.748029   -0.303879
     10          1           0        2.839572    0.408520    0.770931
     11          1           0        0.371367    0.881113    1.426234
     12          1           0        0.980743    1.942453    0.168017
 ---------------------------------------------------------------------

 SCF Done:  E(RB3LYP) =  -343.416560406     A.U. after    1 cycles

 The electronic state is 1-A.
 Alpha  occ. eigenvalues --  -19.22563 -19.18691 -19.18402 -10.30728 -10.26840
 Alpha  occ. eigenvalues --  -10.22836  -1.07730  -1.06338  -0.95980  -0.79679
 Alpha  occ. eigenvalues --   -0.65971  -0.59147  -0.54587  -0.50914  -0.49126
 Alpha  occ. eigenvalues --   -0.46516  -0.44303  -0.43890  -0.39181  -0.35961
 Alpha  occ. eigenvalues --   -0.33571  -0.32275  -0.29485  -0.27731
 Alpha virt. eigenvalues --   -0.16243  -0.05423   0.00239   0.01567   0.02860
 Alpha virt. eigenvalues --    0.03298   0.05333   0.06453   0.06940   0.07892
 Alpha virt. eigenvalues --    0.08977   0.11231   0.11578   0.12742   0.15357

 Mulliken charges:
               1
     1  C   -0.358473
     2  C   -0.363785
     3  C    0.165515
     4  O   -0.138271
     5  O   -0.660285
     6  O   -0.348465
     7  H    0.471656
     8  H    0.227439
     9  H    0.343978
    10  H    0.166734
    11  H    0.259409
    12  H    0.234548
 Sum of Mulliken charges =   0.00000

 Dipole moment (field-independent basis, Debye):
    X=              1.1321    Y=              1.5178    Z=              0.9981  Tot=              2.1405
 Quadrupole moment (field-independent basis, Debye-Ang):
   XX=            -37.1134   YY=            -36.0686   ZZ=            -34.8721
   XY=              9.1941   XZ=              1.0575   YZ=             -1.7416

  Exact polarizability:  72.266  10.815  61.267  -3.533  -0.602  44.439
 Approx polarizability:  99.224  18.134 113.563 -13.708  -5.669  65.718

 ******    1 imaginary frequencies (negative Signs) ******

                      1                      2                      3
                      A                      A                      A
 Frequencies --  -1375.1767                53.0880               123.2907
 Red. masses --      1.1568                 5.3792                 3.1104
 Frc consts  --      1.2889                 0.0089                 0.0279
 IR Inten    --    127.5523                 8.6474                 3.9656

                      4                      5                      6
                      A                      A                      A
 Frequencies --    170.4589               225.6350               293.0424
 Red. masses --      2.7050                 3.0001                 1.1516
 Frc consts  --      0.0463                 0.0900                 0.0583
 IR Inten    --      5.6005                 8.7839               182.7879

                      7                      8                      9
                      A                      A                      A
 Frequencies --    420.1477               469.7704               607.3424
 Red. masses --      4.9625                 5.3138                 3.8110
 Frc consts  --      0.5161                 0.6909                 0.8282
 IR Inten    --     10.1949                28.7374                 2.2067

                     10                     11                     12
                      A                      A                      A
 Frequencies --    696.6088               702.0936               846.7965
 Red. masses --      1.5933                 2.8805                 1.3922
 Frc consts  --      0.4555                 0.8366                 0.5882
 IR Inten    --     19.6588                13.2320                 7.2959

                     13                     14                     15
                      A                      A                      A
 Frequencies --    913.6652              1037.5607              1066.9640
 Red. masses --      2.3265                 2.3046                 2.0115
 Frc consts  --      1.1442                 1.4618                 1.3492
 IR Inten    --      8.1815                24.3280                 1.5302

                     16                     17                     18
                      A                      A                      A
 Frequencies --   1122.7097              1210.2713              1261.9322
 Red. masses --      1.1749                 1.2840                 1.1729
 Frc consts  --      0.8725                 1.1081                 1.1005
 IR Inten    --     41.2916                13.6575               136.7943

                     19                     20                     21
                      A                      A                      A
 Frequencies --   1276.9969              1338.0498              1412.1020
 Red. masses --      1.7179                 1.7965                 1.3969
 Frc consts  --      1.6506                 1.8951                 1.6412
 IR Inten    --     11.9176                11.7038                15.4855

                     22                     23                     24
                      A                      A                      A
 Frequencies --   1426.7006              1455.3550              1791.0103
 Red. masses --      1.3842                 1.1066                 1.3201
 Frc consts  --      1.6601                 1.3809                 2.4949
 IR Inten    --      5.9074                22.2215                45.9348

                     25                     26                     27
                      A                      A                      A
 Frequencies --   1808.6246              2932.3532              2993.2649
 Red. masses --      4.3086                 1.0844                 1.0798
 Frc consts  --      8.3040                 5.4937                 5.7001
 IR Inten    --    203.5409               122.0783                15.1223

                     28                     29                     30
                      A                      A                      A
 Frequencies --   3029.7280              3065.6658              3548.4145
 Red. masses --      1.0627                 1.0981                 1.0643
 Frc consts  --      5.7473                 6.0803                 7.8956
 IR Inten    --     13.0664                 3.6959                16.5839

 - Thermochemistry -
 -------------------
 Temperature   298.150 Kelvin.  Pressure   1.00000 Atm.
 Atom     1 has atomic number  6 and mass  12.00000

 Molecular mass:    90.03169 amu.
 Principal axes and moments of inertia in atomic units:
                           1         2         3
     Eigenvalues --   285.85903 916.030911090.75494
           X            0.99892   0.04580   0.00824
           Y           -0.04589   0.99889   0.01027
           Z           -0.00776  -0.01063   0.99991
 This molecule is an asymmetric top.
 Rotational symmetry number  1.
 Rotational temperatures (Kelvin)      0.30300     0.09455     0.07941
 Rotational constants (GHZ):           6.31340     1.97018     1.65458
    1 imaginary frequencies ignored.
 Zero-point vibrational energy     223101.4 (Joules/Mol)
                                   53.32252 (Kcal/Mol)
 Warning -- explicit consideration of   8 degrees of freedom as
           vibrations may cause significant error
 Vibrational temperatures:     76.38   177.39   245.25   324.64   421.62
          (Kelvin)            604.50   675.89   873.83  1002.26  1010.16
                             1218.35  1314.56  1492.82  1535.12  1615.33
                             1741.31  1815.64  1837.31  1925.16  2031.70
                             2052.70  2093.93  2576.86  2602.21  4219.00
                             4306.64  4359.10  4410.81  5105.38

 Zero-point correction=                           0.084975 (Hartree/Particle)
 Thermal correction to Energy=                    0.092079
 Thermal correction to Enthalpy=                  0.093023
 Thermal correction to Gibbs Free Energy=         0.053362
 Sum of electronic and zero-point Energies=           -343.331586
 Sum of electronic and thermal Energies=              -343.324481
 Sum of electronic and thermal Enthalpies=            -343.323537
 Sum of electronic and thermal Free Energies=         -343.363198

                     E (Thermal)             CV                S
                      KCal/Mol        Cal/Mol-Kelvin    Cal/Mol-Kelvin
 Total                   57.780             23.616             83.473
 Electronic               0.000              0.000              0.000
 Translational            0.889              2.981             39.405
 Rotational               0.889              2.981             27.149
 Vibrational             56.003             17.654             16.920
 Vibration     1          0.596              1.976              4.699
 Vibration     2          0.610              1.930              3.048
 Vibration     3          0.626              1.879              2.430
 Vibration     4          0.650              1.802              1.913
 Vibration     5          0.688              1.687              1.456
 Vibration     6          0.783              1.426              0.891
 Vibration     7          0.827              1.317              0.738
 Vibration     8          0.966              1.016              0.437

 Optimization completed.
    -- Stationary point found.
 Normal termination of Gaussian 16 at Wed Dec 23 22:05:08 2020.
