 Gaussian 16, Revision B.01,
 Gaussian 16:  ES64L-G16RevB.01 20-Dec-2017

 --------------------------------------------------------------
 # B3LYP/6-31+G* OPT=(TS, CALCALL, NOEIGEN, maxcycles=100) Freq
 --------------------------------------------------------------

 ----------
 pp_13_1 TS
 ----------
 Symbolic Z-matrix:
 Charge =  0 Multiplicity = 1

 SCF Done:  E(RB3LYP) =  -343.250140525     A.U. after   20 cycles
 SCF Done:  E(RB3LYP) =  -343.266081376     A.U. after   16 cycles
 SCF Done:  E(RB3LYP) =  -343.290059156     A.U. after   15 cycles
 SCF Done:  E(RB3LYP) =  -343.308468727     A.U. after   15 cycles
 SCF Done:  E(RB3LYP) =  -343.316920203     A.U. after   14 cycles
 SCF Done:  E(RB3LYP) =  -343.321821577     A.U. after   13 cycles
 SCF Done:  E(RB3LYP) =  -343.328690760     A.U. after   13 cycles
 SCF Done:  E(RB3LYP) =  -343.333252667     A.U. after   13 cycles
 SCF Done:  E(RB3LYP) =  -343.335296722     A.U. after   13 cycles
 SCF Done:  E(RB3LYP) =  -343.335576163     A.U. after   13 cycles
 SCF Done:  E(RB3LYP) =  -343.335578330     A.U. after   11 cycles
 Optimization completed.
    -- Stationary point found.
 ******    1 imaginary frequencies (negative Signs) ******
    1 imaginary frequencies ignored.
 Normal termination of Gaussian 16 at Wed Dec 23 22:05:06 2020.

 ---------------------------------------------------------------------
 #N Geom=AllCheck Guess=TCheck SCRF=Check GenChk RB3LYP/6-31+G(d) Freq
 ---------------------------------------------------------------------

 Structure from the checkpoint file:  "/scratch/bell/zhao922/YARP/paper-example/KHP-network/pp_0/TS-folder/Gau-3841.chk"
 ----------
 pp_13_1 TS
 ----------
 Charge =  0 Multiplicity = 1

                         Standard orientation:
 ---------------------------------------------------------------------
 Center     Atomic      Atomic             Coordinates (Angstroms)
 Number     Number       Type             X           Y           Z
 ---------------------------------------------------------------------
      1          6           0        0.309045   -0.532542    0.224813
      2          6           0       -0.469880    0.696896    0.173250
      3          6           0       -1.869529    0.549236   -0.094296
      4          8           0        1.558402   -0.690564   -0.293546
      5          8           0        2.285893    0.564012   -0.133701
      6          8           0       -2.466689   -0.532687   -0.182302
      7          1           0        3.183758    0.198295   -0.022343
      8          1           0        0.620940   -0.889597    1.610902
      9          1           0       -0.294613   -1.421071    0.024038
     10          1           0       -2.428874    1.498932   -0.212212
     11          1           0        0.025629    1.657154    0.224749
     12          1           0        0.054490   -0.051350    1.428651
 ---------------------------------------------------------------------

 SCF Done:  E(RB3LYP) =  -343.335578330     A.U. after    1 cycles

 The electronic state is 1-A.
 Alpha  occ. eigenvalues --  -19.28855 -19.26779 -19.12114 -10.35170 -10.25958
 Alpha  occ. eigenvalues --  -10.19375  -1.19338  -1.01379  -0.99636  -0.83054
 Alpha  occ. eigenvalues --   -0.68493  -0.61906  -0.57545  -0.55595  -0.52964
 Alpha  occ. eigenvalues --   -0.46910  -0.46239  -0.44119  -0.40431  -0.38660
 Alpha  occ. eigenvalues --   -0.36943  -0.32363  -0.24424  -0.22759
 Alpha virt. eigenvalues --   -0.05769  -0.05104  -0.01819   0.00533   0.02230
 Alpha virt. eigenvalues --    0.03592   0.04969   0.06128   0.06889   0.08192
 Alpha virt. eigenvalues --    0.08667   0.11034   0.12015   0.12495   0.13137

 Mulliken charges:
               1
     1  C   -0.550441
     2  C    0.003142
     3  C    0.028268
     4  O   -0.030192
     5  O   -0.478899
     6  O   -0.500061
     7  H    0.491919
     8  H    0.067657
     9  H    0.325070
    10  H    0.150348
    11  H    0.223952
    12  H    0.269236
 Sum of Mulliken charges =  -0.00000

 Dipole moment (field-independent basis, Debye):
    X=              4.9295    Y=              0.6677    Z=              1.6568  Tot=              5.2432
 Quadrupole moment (field-independent basis, Debye-Ang):
   XX=            -38.6833   YY=            -36.8168   ZZ=            -37.5881
   XY=             -4.5405   XZ=              0.2141   YZ=             -0.2937

  Exact polarizability:  84.471  -5.814  58.412   9.699  -7.155  49.281
 Approx polarizability: 119.564  -8.170  93.760  21.523 -12.923  78.433

 ******    1 imaginary frequencies (negative Signs) ******

                      1                      2                      3
                      A                      A                      A
 Frequencies --  -2012.9316                79.9703               151.0685
 Red. masses --      1.1501                 5.3936                 1.2133
 Frc consts  --      2.7456                 0.0203                 0.0163
 IR Inten    --    398.9378                 1.7838               106.2861

                      4                      5                      6
                      A                      A                      A
 Frequencies --    168.7321               236.5881               265.0484
 Red. masses --      3.9813                 4.4297                 2.6205
 Frc consts  --      0.0668                 0.1461                 0.1085
 IR Inten    --     27.4906                 7.3850                 5.7515

                      7                      8                      9
                      A                      A                      A
 Frequencies --    344.5095               574.6156               600.2692
 Red. masses --      1.9733                 1.8313                 3.7092
 Frc consts  --      0.1380                 0.3563                 0.7875
 IR Inten    --     13.6053               143.5165               212.7798

                     10                     11                     12
                      A                      A                      A
 Frequencies --    699.3518               719.6854               881.7659
 Red. masses --      1.2994                 3.4847                 5.3990
 Frc consts  --      0.3744                 1.0634                 2.4732
 IR Inten    --     73.3052                25.2521                17.9115

                     13                     14                     15
                      A                      A                      A
 Frequencies --    957.1497              1004.1794              1041.7185
 Red. masses --      1.6056                 1.5214                 2.1266
 Frc consts  --      0.8667                 0.9039                 1.3597
 IR Inten    --      4.6376                15.7547                33.8676

                     16                     17                     18
                      A                      A                      A
 Frequencies --   1118.9770              1130.7475              1187.6879
 Red. masses --      1.2050                 3.2015                 1.8162
 Frc consts  --      0.8889                 2.4118                 1.5094
 IR Inten    --     27.2995                54.6370               288.9249

                     19                     20                     21
                      A                      A                      A
 Frequencies --   1269.7771              1369.8106              1390.7959
 Red. masses --      1.3270                 1.1227                 1.4030
 Frc consts  --      1.2606                 1.2412                 1.5989
 IR Inten    --    124.6005                42.6853               258.6040

                     22                     23                     24
                      A                      A                      A
 Frequencies --   1427.3964              1449.0890              1545.0730
 Red. masses --      1.5310                 1.3627                 1.3083
 Frc consts  --      1.8379                 1.6859                 1.8401
 IR Inten    --    257.1818               297.3071               828.2864

                     25                     26                     27
                      A                      A                      A
 Frequencies --   1715.1386              1899.9259              2951.5294
 Red. masses --      3.4609                 1.0731                 1.0842
 Frc consts  --      5.9984                 2.2822                 5.5647
 IR Inten    --    225.4299               182.2770               141.3674

                     28                     29                     30
                      A                      A                      A
 Frequencies --   3154.7006              3260.3725              3702.2309
 Red. masses --      1.0899                 1.0903                 1.0682
 Frc consts  --      6.3908                 6.8285                 8.6266
 IR Inten    --     26.5912                 0.0623                74.9135

 - Thermochemistry -
 -------------------
 Temperature   298.150 Kelvin.  Pressure   1.00000 Atm.
 Atom     1 has atomic number  6 and mass  12.00000

 Molecular mass:    90.03169 amu.
 Principal axes and moments of inertia in atomic units:
                           1         2         3
     Eigenvalues --   163.884051035.656111143.42179
           X            0.99991  -0.01221   0.00617
           Y            0.01249   0.99875  -0.04850
           Z           -0.00557   0.04857   0.99880
 This molecule is an asymmetric top.
 Rotational symmetry number  1.
 Rotational temperatures (Kelvin)      0.52851     0.08363     0.07575
 Rotational constants (GHZ):          11.01231     1.74261     1.57837
    1 imaginary frequencies ignored.
 Zero-point vibrational energy     217109.7 (Joules/Mol)
                                   51.89046 (Kcal/Mol)
 Warning -- explicit consideration of   8 degrees of freedom as
           vibrations may cause significant error
 Vibrational temperatures:    115.06   217.35   242.77   340.40   381.35
          (Kelvin)            495.67   826.74   863.65  1006.21  1035.47
                             1268.66  1377.12  1444.79  1498.80  1609.96
                             1626.89  1708.82  1826.93  1970.85  2001.05
                             2053.71  2084.92  2223.02  2467.70  2733.57
                             4246.59  4538.91  4690.95  5326.68

 Zero-point correction=                           0.082693 (Hartree/Particle)
 Thermal correction to Energy=                    0.089723
 Thermal correction to Enthalpy=                  0.090667
 Thermal correction to Gibbs Free Energy=         0.051679
 Sum of electronic and zero-point Energies=           -343.252886
 Sum of electronic and thermal Energies=              -343.245855
 Sum of electronic and thermal Enthalpies=            -343.244911
 Sum of electronic and thermal Free Energies=         -343.283900

                     E (Thermal)             CV                S
                      KCal/Mol        Cal/Mol-Kelvin    Cal/Mol-Kelvin
 Total                   56.302             23.637             82.058
 Electronic               0.000              0.000              0.000
 Translational            0.889              2.981             39.405
 Rotational               0.889              2.981             26.765
 Vibrational             54.524             17.676             15.888
 Vibration     1          0.600              1.963              3.892
 Vibration     2          0.618              1.901              2.659
 Vibration     3          0.625              1.881              2.450
 Vibration     4          0.655              1.785              1.828
 Vibration     5          0.671              1.737              1.628
 Vibration     6          0.723              1.586              1.191
 Vibration     7          0.931              1.086              0.495
 Vibration     8          0.958              1.031              0.449

 Optimization completed.
    -- Stationary point found.
 Normal termination of Gaussian 16 at Wed Dec 23 22:05:23 2020.
