 Gaussian 16, Revision B.01,
 Gaussian 16:  ES64L-G16RevB.01 20-Dec-2017

 --------------------------------------------------------------
 # B3LYP/6-31+G* OPT=(TS, CALCALL, NOEIGEN, maxcycles=100) Freq
 --------------------------------------------------------------

 ----------
 pp_10_0 TS
 ----------
 Symbolic Z-matrix:
 Charge =  0 Multiplicity = 1

 SCF Done:  E(RB3LYP) =  -343.054530152     A.U. after   16 cycles
 SCF Done:  E(RB3LYP) =  -343.098295664     A.U. after   15 cycles
 SCF Done:  E(RB3LYP) =  -343.139411529     A.U. after   14 cycles
 SCF Done:  E(RB3LYP) =  -343.174030713     A.U. after   14 cycles
 SCF Done:  E(RB3LYP) =  -343.205448702     A.U. after   14 cycles
 SCF Done:  E(RB3LYP) =  -343.211508650     A.U. after   12 cycles
 SCF Done:  E(RB3LYP) =  -343.214234968     A.U. after   12 cycles
 SCF Done:  E(RB3LYP) =  -343.214309096     A.U. after    8 cycles
 SCF Done:  E(RB3LYP) =  -343.218210623     A.U. after   14 cycles
 SCF Done:  E(RB3LYP) =  -343.218608784     A.U. after   12 cycles
 SCF Done:  E(RB3LYP) =  -343.369999790     A.U. after   13 cycles
 SCF Done:  E(RB3LYP) =  -343.370334455     A.U. after   14 cycles
 SCF Done:  E(RB3LYP) =  -343.372010616     A.U. after   14 cycles
 SCF Done:  E(RB3LYP) =  -343.372710190     A.U. after   13 cycles
 SCF Done:  E(RB3LYP) =  -343.372718825     A.U. after   12 cycles
 SCF Done:  E(RB3LYP) =  -343.373005202     A.U. after   13 cycles
 SCF Done:  E(RB3LYP) =  -343.373024871     A.U. after   12 cycles
 SCF Done:  E(RB3LYP) =  -343.373027611     A.U. after   10 cycles
 SCF Done:  E(RB3LYP) =  -343.373027630     A.U. after    8 cycles
 Optimization completed.
    -- Stationary point found.
 ******    1 imaginary frequencies (negative Signs) ******
    1 imaginary frequencies ignored.
 Normal termination of Gaussian 16 at Wed Dec 23 22:12:03 2020.

 ---------------------------------------------------------------------
 #N Geom=AllCheck Guess=TCheck SCRF=Check GenChk RB3LYP/6-31+G(d) Freq
 ---------------------------------------------------------------------

 Structure from the checkpoint file:  "/scratch/bell/zhao922/YARP/paper-example/KHP-network/pp_0/TS-folder/Gau-18005.chk"
 ----------
 pp_10_0 TS
 ----------
 Charge =  0 Multiplicity = 1

                         Standard orientation:
 ---------------------------------------------------------------------
 Center     Atomic      Atomic             Coordinates (Angstroms)
 Number     Number       Type             X           Y           Z
 ---------------------------------------------------------------------
      1          6           0        0.469614   -1.716575   -0.591511
      2          6           0        1.714476    0.319871    0.434195
      3          6           0        0.442817    0.711769    0.069140
      4          8           0       -0.529047   -0.380297    0.625284
      5          8           0       -1.861203   -0.107640    0.198381
      6          8           0       -0.104891    1.553742   -0.618219
      7          1           0       -1.704297    0.707012   -0.354133
      8          1           0       -0.551499   -1.902535   -0.906561
      9          1           0        0.858032   -2.337755    0.205606
     10          1           0        1.169389   -1.419540   -1.359715
     11          1           0        2.563473    0.813981   -0.023500
     12          1           0        1.864593   -0.277990    1.323786
 ---------------------------------------------------------------------

 SCF Done:  E(RB3LYP) =  -343.373027630     A.U. after    1 cycles

 The electronic state is 1-A.
 Alpha  occ. eigenvalues --  -19.25615 -19.23064 -19.16826 -10.32406 -10.29396
 Alpha  occ. eigenvalues --  -10.19282  -1.15906  -1.06117  -0.91484  -0.75273
 Alpha  occ. eigenvalues --   -0.73411  -0.60062  -0.52526  -0.49895  -0.49133
 Alpha  occ. eigenvalues --   -0.47369  -0.45579  -0.44183  -0.43396  -0.39076
 Alpha  occ. eigenvalues --   -0.38068  -0.31676  -0.30348  -0.21786
 Alpha virt. eigenvalues --   -0.12638  -0.00491  -0.00074   0.01807   0.03256
 Alpha virt. eigenvalues --    0.03744   0.04685   0.06361   0.07128   0.07427
 Alpha virt. eigenvalues --    0.08702   0.09413   0.10727   0.11983   0.12611

 Mulliken charges:
               1
     1  C   -0.499721
     2  C   -0.552323
     3  C    0.453465
     4  O   -0.014074
     5  O   -0.554667
     6  O   -0.545232
     7  H    0.491523
     8  H    0.261066
     9  H    0.260983
    10  H    0.270721
    11  H    0.214047
    12  H    0.214211
 Sum of Mulliken charges =   0.00000

 Dipole moment (field-independent basis, Debye):
    X=              1.7452    Y=             -3.1544    Z=             -1.0186  Tot=              3.7461
 Quadrupole moment (field-independent basis, Debye-Ang):
   XX=            -36.6352   YY=            -35.7790   ZZ=            -36.8381
   XY=             -3.1394   XZ=              1.4827   YZ=              2.4038

  Exact polarizability:  76.817   5.314  78.819   6.161   6.899  45.256
 Approx polarizability: 132.020  17.809 150.386  11.567  12.461  68.537

 ******    1 imaginary frequencies (negative Signs) ******

                      1                      2                      3
                      A                      A                      A
 Frequencies --   -671.6850                89.7105               131.0337
 Red. masses --      3.5826                 2.6569                 1.4078
 Frc consts  --      0.9523                 0.0126                 0.0142
 IR Inten    --    178.4894                 0.8656                 0.1971

                      4                      5                      6
                      A                      A                      A
 Frequencies --    151.3610               292.2717               348.6068
 Red. masses --      4.7310                 4.2561                 4.3680
 Frc consts  --      0.0639                 0.2142                 0.3128
 IR Inten    --      2.1308                13.9214                14.7575

                      7                      8                      9
                      A                      A                      A
 Frequencies --    431.6206               487.3587               548.6509
 Red. masses --      3.9584                 2.8712                 1.5923
 Frc consts  --      0.4345                 0.4018                 0.2824
 IR Inten    --      1.2758                52.0749                51.6840

                     10                     11                     12
                      A                      A                      A
 Frequencies --    595.2996               646.5255               664.1008
 Red. masses --      1.2671                 3.5004                 1.2802
 Frc consts  --      0.2646                 0.8621                 0.3327
 IR Inten    --     76.6722                24.5228                39.8692

                     13                     14                     15
                      A                      A                      A
 Frequencies --    675.1874               744.8817               866.3004
 Red. masses --      2.4866                 1.2434                 1.2940
 Frc consts  --      0.6679                 0.4065                 0.5721
 IR Inten    --     61.1612                14.9015                50.8593

                     16                     17                     18
                      A                      A                      A
 Frequencies --    963.6805              1033.9689              1158.8971
 Red. masses --      6.8529                 1.7662                 2.1703
 Frc consts  --      3.7496                 1.1125                 1.7174
 IR Inten    --     28.6880                11.0789                18.3718

                     19                     20                     21
                      A                      A                      A
 Frequencies --   1192.5775              1444.9942              1463.0376
 Red. masses --      1.3812                 1.0910                 1.2517
 Frc consts  --      1.1574                 1.3422                 1.5786
 IR Inten    --     19.3485                 4.6394                 2.6248

                     22                     23                     24
                      A                      A                      A
 Frequencies --   1475.6085              1497.4865              1832.1098
 Red. masses --      1.0947                 1.1704                 8.4644
 Frc consts  --      1.4044                 1.5464                16.7398
 IR Inten    --      2.4360               157.7586               470.9663

                     25                     26                     27
                      A                      A                      A
 Frequencies --   3146.3660              3196.7597              3293.8041
 Red. masses --      1.0166                 1.0531                 1.1193
 Frc consts  --      5.9292                 6.3410                 7.1547
 IR Inten    --      2.0508                 2.7729                 0.3653

                     28                     29                     30
                      A                      A                      A
 Frequencies --   3303.6150              3329.0690              3337.2632
 Red. masses --      1.1149                 1.0665                 1.1169
 Frc consts  --      7.1689                 6.9637                 7.3287
 IR Inten    --      3.5022                65.3913                 1.1443

 - Thermochemistry -
 -------------------
 Temperature   298.150 Kelvin.  Pressure   1.00000 Atm.
 Atom     1 has atomic number  6 and mass  12.00000

 Molecular mass:    90.03169 amu.
 Principal axes and moments of inertia in atomic units:
                           1         2         3
     Eigenvalues --   427.71920 499.85965 756.19724
           X            0.99193  -0.12501   0.02118
           Y            0.12423   0.99164   0.03487
           Z           -0.02536  -0.03195   0.99917
 This molecule is an asymmetric top.
 Rotational symmetry number  1.
 Rotational temperatures (Kelvin)      0.20250     0.17328     0.11454
 Rotational constants (GHZ):           4.21945     3.61050     2.38660
    1 imaginary frequencies ignored.
 Zero-point vibrational energy     229337.0 (Joules/Mol)
                                   54.81285 (Kcal/Mol)
 Warning -- explicit consideration of   9 degrees of freedom as
           vibrations may cause significant error
 Vibrational temperatures:    129.07   188.53   217.77   420.51   501.57
          (Kelvin)            621.01   701.20   789.39   856.50   930.21
                              955.49   971.44  1071.72  1246.41  1386.52
                             1487.65  1667.39  1715.85  2079.02  2104.98
                             2123.07  2154.55  2636.00  4526.92  4599.42
                             4739.05  4753.17  4789.79  4801.58

 Zero-point correction=                           0.087350 (Hartree/Particle)
 Thermal correction to Energy=                    0.094594
 Thermal correction to Enthalpy=                  0.095538
 Thermal correction to Gibbs Free Energy=         0.056462
 Sum of electronic and zero-point Energies=           -343.285678
 Sum of electronic and thermal Energies=              -343.278434
 Sum of electronic and thermal Enthalpies=            -343.277490
 Sum of electronic and thermal Free Energies=         -343.316565

                     E (Thermal)             CV                S
                      KCal/Mol        Cal/Mol-Kelvin    Cal/Mol-Kelvin
 Total                   59.358             25.436             82.241
 Electronic               0.000              0.000              0.000
 Translational            0.889              2.981             39.405
 Rotational               0.889              2.981             26.583
 Vibrational             57.581             19.475             16.253
 Vibration     1          0.602              1.956              3.666
 Vibration     2          0.612              1.922              2.931
 Vibration     3          0.619              1.901              2.655
 Vibration     4          0.688              1.688              1.461
 Vibration     5          0.726              1.578              1.172
 Vibration     6          0.793              1.401              0.853
 Vibration     7          0.843              1.278              0.690
 Vibration     8          0.904              1.143              0.547
 Vibration     9          0.953              1.042              0.458

 Optimization completed.
    -- Stationary point found.
 Normal termination of Gaussian 16 at Wed Dec 23 22:12:18 2020.
