 Gaussian 16, Revision B.01,
 Gaussian 16:  ES64L-G16RevB.01 20-Dec-2017

 --------------------------------------------------------------
 # B3LYP/6-31+G* OPT=(TS, CALCALL, NOEIGEN, maxcycles=100) Freq
 --------------------------------------------------------------

 ----------
 pp_12_0 TS
 ----------
 Symbolic Z-matrix:
 Charge =  0 Multiplicity = 1

 SCF Done:  E(RB3LYP) =  -343.318752636     A.U. after   18 cycles
 SCF Done:  E(RB3LYP) =  -343.332682764     A.U. after   14 cycles
 SCF Done:  E(RB3LYP) =  -343.346433683     A.U. after   15 cycles
 SCF Done:  E(RB3LYP) =  -343.359530507     A.U. after   14 cycles
 SCF Done:  E(RB3LYP) =  -343.370154168     A.U. after   14 cycles
 SCF Done:  E(RB3LYP) =  -343.374774791     A.U. after   14 cycles
 SCF Done:  E(RB3LYP) =  -343.377482777     A.U. after   14 cycles
 SCF Done:  E(RB3LYP) =  -343.379688109     A.U. after   14 cycles
 SCF Done:  E(RB3LYP) =  -343.382687378     A.U. after   15 cycles
 SCF Done:  E(RB3LYP) =  -343.389260686     A.U. after   15 cycles
 SCF Done:  E(RB3LYP) =  -343.371513133     A.U. after   15 cycles
 SCF Done:  E(RB3LYP) =  -343.390669264     A.U. after   13 cycles
 SCF Done:  E(RB3LYP) =  -343.390338028     A.U. after   14 cycles
 SCF Done:  E(RB3LYP) =  -343.394586891     A.U. after   13 cycles
 SCF Done:  E(RB3LYP) =  -343.397135590     A.U. after   12 cycles
 SCF Done:  E(RB3LYP) =  -343.397311987     A.U. after   12 cycles
 SCF Done:  E(RB3LYP) =  -343.397313865     A.U. after   10 cycles
 Optimization completed.
    -- Stationary point found.
 ******    1 imaginary frequencies (negative Signs) ******
    1 imaginary frequencies ignored.
 Normal termination of Gaussian 16 at Wed Dec 23 22:06:48 2020.

 ---------------------------------------------------------------------
 #N Geom=AllCheck Guess=TCheck SCRF=Check GenChk RB3LYP/6-31+G(d) Freq
 ---------------------------------------------------------------------

 Structure from the checkpoint file:  "/scratch/bell/zhao922/YARP/paper-example/KHP-network/pp_0/TS-folder/Gau-18275.chk"
 ----------
 pp_12_0 TS
 ----------
 Charge =  0 Multiplicity = 1

                         Standard orientation:
 ---------------------------------------------------------------------
 Center     Atomic      Atomic             Coordinates (Angstroms)
 Number     Number       Type             X           Y           Z
 ---------------------------------------------------------------------
      1          6           0        0.384837    1.080150   -0.300531
      2          6           0       -0.627785    0.931056    0.765627
      3          6           0       -1.367546   -0.037199   -0.224082
      4          8           0        1.359558    0.216881   -0.493237
      5          8           0        1.376391   -0.881927    0.475570
      6          8           0       -1.066491   -1.292048   -0.206094
      7          1           0        0.463673   -1.310309    0.253386
      8          1           0       -0.849532    0.514997   -1.256613
      9          1           0        0.547642    1.989136   -0.877159
     10          1           0       -2.406462    0.293079   -0.409346
     11          1           0       -1.165620    1.863659    0.947730
     12          1           0       -0.282404    0.462150    1.686009
 ---------------------------------------------------------------------

 SCF Done:  E(RB3LYP) =  -343.397313865     A.U. after    1 cycles

 The electronic state is 1-A.
 Alpha  occ. eigenvalues --  -19.29262 -19.22411 -19.11333 -10.34968 -10.28814
 Alpha  occ. eigenvalues --  -10.23358  -1.18479  -1.00436  -0.97142  -0.83276
 Alpha  occ. eigenvalues --   -0.67173  -0.63170  -0.57838  -0.55323  -0.52506
 Alpha  occ. eigenvalues --   -0.46717  -0.44035  -0.43184  -0.41136  -0.39947
 Alpha  occ. eigenvalues --   -0.39047  -0.32034  -0.25402  -0.24485
 Alpha virt. eigenvalues --   -0.08160  -0.04147  -0.01144   0.01230   0.02031
 Alpha virt. eigenvalues --    0.03051   0.05572   0.06457   0.06781   0.07068
 Alpha virt. eigenvalues --    0.09154   0.09402   0.11158   0.14118   0.14912

 Mulliken charges:
               1
     1  C   -0.232659
     2  C   -0.189167
     3  C   -0.162982
     4  O   -0.013734
     5  O   -0.480230
     6  O   -0.576792
     7  H    0.527442
     8  H    0.167303
     9  H    0.252590
    10  H    0.219643
    11  H    0.216267
    12  H    0.272322
 Sum of Mulliken charges =  -0.00000

 Dipole moment (field-independent basis, Debye):
    X=             -0.9337    Y=              5.2053    Z=              0.2180  Tot=              5.2929
 Quadrupole moment (field-independent basis, Debye-Ang):
   XX=            -39.8838   YY=            -36.1937   ZZ=            -36.0850
   XY=             -2.6844   XZ=             -1.2225   YZ=             -1.7191

  Exact polarizability:  62.789   3.183  59.331   2.628  -3.038  44.655
 Approx polarizability: 102.183  16.363 100.877   3.336  -9.492  65.668

 ******    1 imaginary frequencies (negative Signs) ******

                      1                      2                      3
                      A                      A                      A
 Frequencies --   -999.6038               199.1399               287.5778
 Red. masses --      1.4945                 8.3270                 5.1351
 Frc consts  --      0.8798                 0.1946                 0.2502
 IR Inten    --    457.7353                 7.7511                38.2412

                      4                      5                      6
                      A                      A                      A
 Frequencies --    314.3231               427.9278               493.2625
 Red. masses --      5.5359                 2.6448                 2.7967
 Frc consts  --      0.3222                 0.2854                 0.4009
 IR Inten    --      4.4486                29.8282                 9.3802

                      7                      8                      9
                      A                      A                      A
 Frequencies --    517.4523               638.1891               839.3852
 Red. masses --      3.6116                 2.9175                 4.2567
 Frc consts  --      0.5698                 0.7001                 1.7670
 IR Inten    --      5.3723                13.8420                 8.7749

                     10                     11                     12
                      A                      A                      A
 Frequencies --    851.9138               919.3504               921.7160
 Red. masses --      3.0570                 1.8627                 1.0829
 Frc consts  --      1.3072                 0.9276                 0.5420
 IR Inten    --     12.8894                12.7106               108.4769

                     13                     14                     15
                      A                      A                      A
 Frequencies --   1040.5478              1070.6318              1147.5495
 Red. masses --      1.5602                 1.7320                 1.3800
 Frc consts  --      0.9953                 1.1697                 1.0707
 IR Inten    --     34.8030                20.9009                 8.7580

                     16                     17                     18
                      A                      A                      A
 Frequencies --   1195.1781              1236.5299              1268.3913
 Red. masses --      1.6205                 1.4412                 1.7458
 Frc consts  --      1.3638                 1.2983                 1.6548
 IR Inten    --    106.6768                69.5152                17.2767

                     19                     20                     21
                      A                      A                      A
 Frequencies --   1304.0058              1329.8749              1383.5232
 Red. masses --      1.1543                 1.2874                 1.7569
 Frc consts  --      1.1565                 1.3415                 1.9814
 IR Inten    --      5.4126                76.9449                51.6918

                     22                     23                     24
                      A                      A                      A
 Frequencies --   1458.9805              1495.2497              1609.0964
 Red. masses --      1.8448                 1.4980                 1.1115
 Frc consts  --      2.3137                 1.9733                 1.6956
 IR Inten    --     97.9029                50.9776                68.6105

                     25                     26                     27
                      A                      A                      A
 Frequencies --   1799.1262              2654.5161              2963.3093
 Red. masses --      1.0897                 1.0867                 1.0847
 Frc consts  --      2.0782                 4.5115                 5.6121
 IR Inten    --     81.7459               362.1346                33.3623

                     28                     29                     30
                      A                      A                      A
 Frequencies --   3116.6866              3192.7310              3200.1760
 Red. masses --      1.0601                 1.0988                 1.1018
 Frc consts  --      6.0674                 6.5991                 6.6482
 IR Inten    --     11.3638                 2.1733                 0.9084

 - Thermochemistry -
 -------------------
 Temperature   298.150 Kelvin.  Pressure   1.00000 Atm.
 Atom     1 has atomic number  6 and mass  12.00000

 Molecular mass:    90.03169 amu.
 Principal axes and moments of inertia in atomic units:
                           1         2         3
     Eigenvalues --   346.36680 496.01231 676.13654
           X            0.99726  -0.07396   0.00122
           Y            0.07397   0.99724  -0.00566
           Z           -0.00080   0.00574   0.99998
 This molecule is an asymmetric top.
 Rotational symmetry number  1.
 Rotational temperatures (Kelvin)      0.25006     0.17462     0.12810
 Rotational constants (GHZ):           5.21049     3.63850     2.66920
    1 imaginary frequencies ignored.
 Zero-point vibrational energy     232532.2 (Joules/Mol)
                                   55.57652 (Kcal/Mol)
 Warning -- explicit consideration of   6 degrees of freedom as
           vibrations may cause significant error
 Vibrational temperatures:    286.52   413.76   452.24   615.69   709.69
          (Kelvin)            744.50   918.21  1207.69  1225.71  1322.74
                             1326.14  1497.12  1540.40  1651.07  1719.59
                             1779.09  1824.93  1876.17  1913.39  1990.58
                             2099.15  2151.33  2315.13  2588.54  3819.26
                             4263.54  4484.22  4593.63  4604.34

 Zero-point correction=                           0.088567 (Hartree/Particle)
 Thermal correction to Energy=                    0.094065
 Thermal correction to Enthalpy=                  0.095009
 Thermal correction to Gibbs Free Energy=         0.059757
 Sum of electronic and zero-point Energies=           -343.308747
 Sum of electronic and thermal Energies=              -343.303249
 Sum of electronic and thermal Enthalpies=            -343.302305
 Sum of electronic and thermal Free Energies=         -343.337557

                     E (Thermal)             CV                S
                      KCal/Mol        Cal/Mol-Kelvin    Cal/Mol-Kelvin
 Total                   59.027             20.155             74.194
 Electronic               0.000              0.000              0.000
 Translational            0.889              2.981             39.405
 Rotational               0.889              2.981             26.255
 Vibrational             57.249             14.194              8.534
 Vibration     1          0.637              1.841              2.141
 Vibration     2          0.685              1.697              1.488
 Vibration     3          0.702              1.646              1.339
 Vibration     4          0.789              1.409              0.865
 Vibration     5          0.849              1.265              0.675
 Vibration     6          0.872              1.211              0.616

 Optimization completed.
    -- Stationary point found.
 Normal termination of Gaussian 16 at Wed Dec 23 22:07:05 2020.
