 Gaussian 16, Revision B.01,
 Gaussian 16:  ES64L-G16RevB.01 20-Dec-2017

 --------------------------------------------------------------
 # B3LYP/6-31+G* OPT=(TS, CALCALL, NOEIGEN, maxcycles=100) Freq
 --------------------------------------------------------------

 ----------
 pp_15_0 TS
 ----------
 Symbolic Z-matrix:
 Charge =  0 Multiplicity = 1

 SCF Done:  E(RB3LYP) =  -343.333050590     A.U. after   18 cycles
 SCF Done:  E(RB3LYP) =  -343.351550934     A.U. after   14 cycles
 SCF Done:  E(RB3LYP) =  -343.364777730     A.U. after   14 cycles
 SCF Done:  E(RB3LYP) =  -343.374503630     A.U. after   14 cycles
 SCF Done:  E(RB3LYP) =  -343.380682070     A.U. after   14 cycles
 SCF Done:  E(RB3LYP) =  -343.384319336     A.U. after   13 cycles
 SCF Done:  E(RB3LYP) =  -343.385987572     A.U. after   14 cycles
 SCF Done:  E(RB3LYP) =  -343.387006145     A.U. after   13 cycles
 SCF Done:  E(RB3LYP) =  -343.387572525     A.U. after   13 cycles
 SCF Done:  E(RB3LYP) =  -343.387712312     A.U. after   13 cycles
 SCF Done:  E(RB3LYP) =  -343.387718497     A.U. after   12 cycles
 SCF Done:  E(RB3LYP) =  -343.387718526     A.U. after    9 cycles
 Optimization completed.
    -- Stationary point found.
 ******    1 imaginary frequencies (negative Signs) ******
    1 imaginary frequencies ignored.
 Normal termination of Gaussian 16 at Wed Dec 23 22:06:03 2020.

 ---------------------------------------------------------------------
 #N Geom=AllCheck Guess=TCheck SCRF=Check GenChk RB3LYP/6-31+G(d) Freq
 ---------------------------------------------------------------------

 Structure from the checkpoint file:  "/scratch/bell/zhao922/YARP/paper-example/KHP-network/pp_0/TS-folder/Gau-31819.chk"
 ----------
 pp_15_0 TS
 ----------
 Charge =  0 Multiplicity = 1

                         Standard orientation:
 ---------------------------------------------------------------------
 Center     Atomic      Atomic             Coordinates (Angstroms)
 Number     Number       Type             X           Y           Z
 ---------------------------------------------------------------------
      1          6           0        0.448949    0.703887    0.288098
      2          6           0       -0.575921   -0.140741   -0.389023
      3          6           0       -1.892403   -0.229145    0.352349
      4          8           0        1.689979    0.729692   -0.222489
      5          8           0        2.534561   -0.896226    0.177464
      6          8           0       -2.975168   -0.124217   -0.179833
      7          1           0        3.125786   -0.990470   -0.591976
      8          1           0        1.310054    1.799836   -0.081572
      9          1           0        0.358259    0.921472    1.357203
     10          1           0       -1.816517   -0.417163    1.445626
     11          1           0       -0.115591   -1.148672   -0.408445
     12          1           0       -0.740720    0.157001   -1.430512
 ---------------------------------------------------------------------

 SCF Done:  E(RB3LYP) =  -343.387718526     A.U. after    1 cycles

 The electronic state is 1-A.
 Alpha  occ. eigenvalues --  -19.26992 -19.18913 -19.12780 -10.32507 -10.31447
 Alpha  occ. eigenvalues --  -10.23903  -1.13022  -1.08229  -0.91653  -0.82105
 Alpha  occ. eigenvalues --   -0.65900  -0.62366  -0.56939  -0.52693  -0.50442
 Alpha  occ. eigenvalues --   -0.49201  -0.45964  -0.44143  -0.40732  -0.39500
 Alpha  occ. eigenvalues --   -0.35537  -0.28974  -0.25833  -0.24939
 Alpha virt. eigenvalues --   -0.11686  -0.06452  -0.03074   0.00597   0.01449
 Alpha virt. eigenvalues --    0.03567   0.04406   0.05659   0.06389   0.07907
 Alpha virt. eigenvalues --    0.08371   0.10098   0.10793   0.11628   0.13835

 Mulliken charges:
               1
     1  C   -0.154344
     2  C   -0.502292
     3  C    0.201037
     4  O   -0.164666
     5  O   -0.762222
     6  O   -0.357342
     7  H    0.432032
     8  H    0.356075
     9  H    0.221391
    10  H    0.169845
    11  H    0.302060
    12  H    0.258425
 Sum of Mulliken charges =  -0.00000

 Dipole moment (field-independent basis, Debye):
    X=             -0.0881    Y=              2.2411    Z=             -0.1248  Tot=              2.2463
 Quadrupole moment (field-independent basis, Debye-Ang):
   XX=            -53.2534   YY=            -34.0333   ZZ=            -34.4635
   XY=              4.4013   XZ=             -6.6810   YZ=              2.1412

  Exact polarizability:  93.796 -17.830  61.471   1.044  -0.385  45.645
 Approx polarizability: 167.069 -66.731 124.816   4.582  -2.842  63.345

 ******    1 imaginary frequencies (negative Signs) ******

                      1                      2                      3
                      A                      A                      A
 Frequencies --  -1527.7410                53.4008                71.4780
 Red. masses --      1.1794                 3.8399                 3.6582
 Frc consts  --      1.6219                 0.0065                 0.0110
 IR Inten    --    284.8845                13.7673                16.1308

                      4                      5                      6
                      A                      A                      A
 Frequencies --    148.1660               219.4378               259.0963
 Red. masses --      4.3659                 1.1241                 2.6853
 Frc consts  --      0.0565                 0.0319                 0.1062
 IR Inten    --      3.6044               105.8606                16.1683

                      7                      8                      9
                      A                      A                      A
 Frequencies --    298.1337               421.8236               450.3594
 Red. masses --      2.7052                 3.9760                 4.4727
 Frc consts  --      0.1417                 0.4168                 0.5345
 IR Inten    --     11.8465               174.2213                39.2940

                     10                     11                     12
                      A                      A                      A
 Frequencies --    533.1168               658.2802               775.9490
 Red. masses --      2.8463                 1.3360                 1.5142
 Frc consts  --      0.4766                 0.3411                 0.5372
 IR Inten    --     28.8585                52.2383                13.1989

                     13                     14                     15
                      A                      A                      A
 Frequencies --    806.5114               930.3528              1015.0566
 Red. masses --      1.2335                 1.1401                 2.4517
 Frc consts  --      0.4727                 0.5814                 1.4883
 IR Inten    --     86.0976                24.0976               111.1121

                     16                     17                     18
                      A                      A                      A
 Frequencies --   1036.0399              1120.7842              1190.9454
 Red. masses --      1.8848                 4.1095                 1.3239
 Frc consts  --      1.1920                 3.0415                 1.1063
 IR Inten    --     26.2717                25.0257                17.2111

                     19                     20                     21
                      A                      A                      A
 Frequencies --   1275.4332              1304.1365              1429.9040
 Red. masses --      1.7466                 2.0404                 1.1824
 Frc consts  --      1.6741                 2.0446                 1.4244
 IR Inten    --     17.2729                61.7995                 0.5750

                     22                     23                     24
                      A                      A                      A
 Frequencies --   1438.8005              1456.5803              1818.9186
 Red. masses --      1.1037                 1.6492                 9.9767
 Frc consts  --      1.3462                 2.0615                19.4474
 IR Inten    --     19.5986                54.7889               254.4483

                     25                     26                     27
                      A                      A                      A
 Frequencies --   2246.5411              2925.0602              2969.9282
 Red. masses --      1.0517                 1.0842                 1.0700
 Frc consts  --      3.1272                 5.4655                 5.5606
 IR Inten    --     14.0853                85.6923                 7.2771

                     28                     29                     30
                      A                      A                      A
 Frequencies --   3101.1385              3109.9338              3722.3069
 Red. masses --      1.0887                 1.0864                 1.0678
 Frc consts  --      6.1689                 6.1908                 8.7166
 IR Inten    --      1.4360                16.2521                34.0855

 - Thermochemistry -
 -------------------
 Temperature   298.150 Kelvin.  Pressure   1.00000 Atm.
 Atom     1 has atomic number  6 and mass  12.00000

 Molecular mass:    90.03169 amu.
 Principal axes and moments of inertia in atomic units:
                           1         2         3
     Eigenvalues --   170.349901312.459081393.07508
           X            0.99996   0.00169  -0.00856
           Y           -0.00118   0.99829   0.05846
           Z            0.00864  -0.05845   0.99825
 This molecule is an asymmetric top.
 Rotational symmetry number  1.
 Rotational temperatures (Kelvin)      0.50845     0.06599     0.06217
 Rotational constants (GHZ):          10.59432     1.37508     1.29551
    1 imaginary frequencies ignored.
 Zero-point vibrational energy     220038.8 (Joules/Mol)
                                   52.59053 (Kcal/Mol)
 Warning -- explicit consideration of   9 degrees of freedom as
           vibrations may cause significant error
 Vibrational temperatures:     76.83   102.84   213.18   315.72   372.78
          (Kelvin)            428.95   606.91   647.97   767.04   947.12
                             1116.42  1160.39  1338.57  1460.44  1490.63
                             1612.56  1713.50  1835.06  1876.36  2057.31
                             2070.11  2095.69  2617.02  3232.27  4208.51
                             4273.06  4461.85  4474.50  5355.57

 Zero-point correction=                           0.083808 (Hartree/Particle)
 Thermal correction to Energy=                    0.091578
 Thermal correction to Enthalpy=                  0.092522
 Thermal correction to Gibbs Free Energy=         0.051308
 Sum of electronic and zero-point Energies=           -343.303910
 Sum of electronic and thermal Energies=              -343.296141
 Sum of electronic and thermal Enthalpies=            -343.295197
 Sum of electronic and thermal Free Energies=         -343.336411

                     E (Thermal)             CV                S
                      KCal/Mol        Cal/Mol-Kelvin    Cal/Mol-Kelvin
 Total                   57.466             25.493             86.742
 Electronic               0.000              0.000              0.000
 Translational            0.889              2.981             39.405
 Rotational               0.889              2.981             27.235
 Vibrational             55.688             19.531             20.103
 Vibration     1          0.596              1.976              4.687
 Vibration     2          0.598              1.968              4.112
 Vibration     3          0.618              1.905              2.696
 Vibration     4          0.647              1.811              1.964
 Vibration     5          0.668              1.747              1.668
 Vibration     6          0.691              1.677              1.427
 Vibration     7          0.784              1.423              0.886
 Vibration     8          0.809              1.360              0.795
 Vibration     9          0.888              1.177              0.580

 Optimization completed.
    -- Stationary point found.
 Normal termination of Gaussian 16 at Wed Dec 23 22:06:23 2020.
