 Gaussian 16, Revision B.01,
 Gaussian 16:  ES64L-G16RevB.01 20-Dec-2017

 --------------------------------------------------------------
 # B3LYP/6-31+G* OPT=(TS, CALCALL, NOEIGEN, maxcycles=100) Freq
 --------------------------------------------------------------

 ----------
 pp_12_1 TS
 ----------
 Symbolic Z-matrix:
 Charge =  0 Multiplicity = 1

 SCF Done:  E(RB3LYP) =  -343.360251516     A.U. after   15 cycles
 SCF Done:  E(RB3LYP) =  -343.375219070     A.U. after   14 cycles
 SCF Done:  E(RB3LYP) =  -343.384604823     A.U. after   13 cycles
 SCF Done:  E(RB3LYP) =  -343.388363826     A.U. after   14 cycles
 SCF Done:  E(RB3LYP) =  -343.388616780     A.U. after   12 cycles
 SCF Done:  E(RB3LYP) =  -343.388625143     A.U. after   11 cycles
 Optimization completed.
    -- Stationary point found.
 ******    1 imaginary frequencies (negative Signs) ******
    1 imaginary frequencies ignored.
 Normal termination of Gaussian 16 at Wed Dec 23 22:03:21 2020.

 ---------------------------------------------------------------------
 #N Geom=AllCheck Guess=TCheck SCRF=Check GenChk RB3LYP/6-31+G(d) Freq
 ---------------------------------------------------------------------

 Structure from the checkpoint file:  "/scratch/bell/zhao922/YARP/paper-example/KHP-network/pp_0/TS-folder/Gau-106091.chk"
 ----------
 pp_12_1 TS
 ----------
 Charge =  0 Multiplicity = 1

                         Standard orientation:
 ---------------------------------------------------------------------
 Center     Atomic      Atomic             Coordinates (Angstroms)
 Number     Number       Type             X           Y           Z
 ---------------------------------------------------------------------
      1          6           0       -0.368958    0.279501   -0.437946
      2          6           0        0.744105    1.112333   -0.065996
      3          6           0        1.475403   -0.289963    0.444222
      4          8           0       -1.508352    0.429348    0.228574
      5          8           0       -2.365148   -0.735962   -0.039500
      6          8           0        2.460671   -0.711348   -0.218635
      7          1           0       -3.232288   -0.334750    0.162875
      8          1           0       -0.392873   -0.309598   -1.350977
      9          1           0        0.480818   -1.008501    0.390073
     10          1           0        1.480816   -0.169930    1.547444
     11          1           0        0.542136    1.824158    0.734337
     12          1           0        1.320729    1.531093   -0.888947
 ---------------------------------------------------------------------

 SCF Done:  E(RB3LYP) =  -343.388625143     A.U. after    1 cycles

 The electronic state is 1-A.
 Alpha  occ. eigenvalues --  -19.30779 -19.27465 -19.08955 -10.33166 -10.26772
 Alpha  occ. eigenvalues --  -10.22075  -1.20333  -1.01226  -0.98220  -0.81665
 Alpha  occ. eigenvalues --   -0.65533  -0.62865  -0.60203  -0.55318  -0.51997
 Alpha  occ. eigenvalues --   -0.45041  -0.44916  -0.43784  -0.41376  -0.39902
 Alpha  occ. eigenvalues --   -0.38452  -0.34502  -0.23088  -0.21667
 Alpha virt. eigenvalues --   -0.08086  -0.05956  -0.01061   0.01796   0.02070
 Alpha virt. eigenvalues --    0.02895   0.05851   0.06700   0.07127   0.08081
 Alpha virt. eigenvalues --    0.08784   0.10019   0.11877   0.12686   0.13593

 Mulliken charges:
               1
     1  C   -0.134282
     2  C   -0.319310
     3  C   -0.194721
     4  O   -0.022588
     5  O   -0.487481
     6  O   -0.485424
     7  H    0.483267
     8  H    0.273312
     9  H    0.165873
    10  H    0.231751
    11  H    0.228864
    12  H    0.260738
 Sum of Mulliken charges =  -0.00000

 Dipole moment (field-independent basis, Debye):
    X=             -6.0951    Y=              2.6495    Z=              0.6033  Tot=              6.6733
 Quadrupole moment (field-independent basis, Debye-Ang):
   XX=            -40.7814   YY=            -38.3268   ZZ=            -34.6433
   XY=              5.0697   XZ=              2.4673   YZ=             -0.4936

  Exact polarizability:  97.724  -3.224  51.973   3.922  -1.605  45.108
 Approx polarizability: 180.604 -18.779  80.583  10.789  -3.359  64.725

 ******    1 imaginary frequencies (negative Signs) ******

                      1                      2                      3
                      A                      A                      A
 Frequencies --   -965.3594               116.4699               123.2753
 Red. masses --      1.8566                 6.0449                 2.1956
 Frc consts  --      1.0194                 0.0483                 0.0197
 IR Inten    --    120.5247                11.7600                 2.8798

                      4                      5                      6
                      A                      A                      A
 Frequencies --    156.8651               222.8984               341.6786
 Red. masses --      1.2232                 4.5725                 5.6837
 Frc consts  --      0.0177                 0.1339                 0.3909
 IR Inten    --    142.1244                 6.8391                 0.4645

                      7                      8                      9
                      A                      A                      A
 Frequencies --    420.7612               524.0129               581.3613
 Red. masses --      3.5476                 3.4027                 4.0799
 Frc consts  --      0.3700                 0.5505                 0.8124
 IR Inten    --     14.0808                 8.3406                78.0302

                     10                     11                     12
                      A                      A                      A
 Frequencies --    750.9106               844.0941               920.6100
 Red. masses --      2.3284                 4.9202                 1.4644
 Frc consts  --      0.7736                 2.0655                 0.7313
 IR Inten    --     27.1477                74.7510                25.7362

                     13                     14                     15
                      A                      A                      A
 Frequencies --    949.7626              1025.0196              1139.2270
 Red. masses --      1.6584                 1.2581                 1.3331
 Frc consts  --      0.8814                 0.7788                 1.0194
 IR Inten    --     70.4413                83.9165                20.4018

                     16                     17                     18
                      A                      A                      A
 Frequencies --   1184.1018              1231.0526              1240.7428
 Red. masses --      1.2497                 1.8885                 1.4736
 Frc consts  --      1.0324                 1.6862                 1.3366
 IR Inten    --      2.8515                78.3683                20.0363

                     19                     20                     21
                      A                      A                      A
 Frequencies --   1283.6937              1376.7112              1404.4356
 Red. masses --      1.2101                 1.0954                 2.0047
 Frc consts  --      1.1749                 1.2233                 2.3297
 IR Inten    --     40.3208                41.4927               170.3041

                     22                     23                     24
                      A                      A                      A
 Frequencies --   1435.0015              1479.0716              1517.3983
 Red. masses --      1.3128                 1.8179                 2.2633
 Frc consts  --      1.5928                 2.3431                 3.0704
 IR Inten    --    175.8250               132.5807                57.9296

                     25                     26                     27
                      A                      A                      A
 Frequencies --   1965.0229              2908.2912              3132.6233
 Red. masses --      1.0579                 1.0820                 1.0572
 Frc consts  --      2.4068                 5.3921                 6.1123
 IR Inten    --     93.0297                47.7179                 2.7188

                     28                     29                     30
                      A                      A                      A
 Frequencies --   3210.4903              3221.3219              3697.3549
 Red. masses --      1.1085                 1.0979                 1.0682
 Frc consts  --      6.7319                 6.7124                 8.6039
 IR Inten    --      2.9992                 2.9876               115.5536

 - Thermochemistry -
 -------------------
 Temperature   298.150 Kelvin.  Pressure   1.00000 Atm.
 Atom     1 has atomic number  6 and mass  12.00000

 Molecular mass:    90.03169 amu.
 Principal axes and moments of inertia in atomic units:
                           1         2         3
     Eigenvalues --   198.217691015.822441127.60318
           X            0.99987   0.01514   0.00638
           Y           -0.01508   0.99985  -0.00888
           Z           -0.00652   0.00878   0.99994
 This molecule is an asymmetric top.
 Rotational symmetry number  1.
 Rotational temperatures (Kelvin)      0.43696     0.08526     0.07681
 Rotational constants (GHZ):           9.10484     1.77663     1.60051
    1 imaginary frequencies ignored.
 Zero-point vibrational energy     229708.5 (Joules/Mol)
                                   54.90165 (Kcal/Mol)
 Warning -- explicit consideration of   8 degrees of freedom as
           vibrations may cause significant error
 Vibrational temperatures:    167.57   177.37   225.69   320.70   491.60
          (Kelvin)            605.38   753.94   836.45  1080.39  1214.46
                             1324.55  1366.50  1474.77  1639.09  1703.66
                             1771.21  1785.15  1846.95  1980.78  2020.67
                             2064.65  2128.05  2183.20  2827.23  4184.38
                             4507.15  4619.18  4634.76  5319.67

 Zero-point correction=                           0.087491 (Hartree/Particle)
 Thermal correction to Energy=                    0.094315
 Thermal correction to Enthalpy=                  0.095259
 Thermal correction to Gibbs Free Energy=         0.056649
 Sum of electronic and zero-point Energies=           -343.301134
 Sum of electronic and thermal Energies=              -343.294311
 Sum of electronic and thermal Enthalpies=            -343.293366
 Sum of electronic and thermal Free Energies=         -343.331976

                     E (Thermal)             CV                S
                      KCal/Mol        Cal/Mol-Kelvin    Cal/Mol-Kelvin
 Total                   59.183             22.851             81.261
 Electronic               0.000              0.000              0.000
 Translational            0.889              2.981             39.405
 Rotational               0.889              2.981             26.920
 Vibrational             57.406             16.890             14.936
 Vibration     1          0.608              1.936              3.158
 Vibration     2          0.610              1.930              3.048
 Vibration     3          0.621              1.895              2.587
 Vibration     4          0.649              1.806              1.935
 Vibration     5          0.721              1.592              1.204
 Vibration     6          0.783              1.425              0.889
 Vibration     7          0.879              1.197              0.601
 Vibration     8          0.938              1.072              0.483

 Optimization completed.
    -- Stationary point found.
 Normal termination of Gaussian 16 at Wed Dec 23 22:03:37 2020.
