 Gaussian 16, Revision B.01,
 Gaussian 16:  ES64L-G16RevB.01 20-Dec-2017

 --------------------------------------------------------------
 # B3LYP/6-31+G* OPT=(TS, CALCALL, NOEIGEN, maxcycles=100) Freq
 --------------------------------------------------------------

 ---------
 pp_1_0 TS
 ---------
 Symbolic Z-matrix:
 Charge =  0 Multiplicity = 1

 SCF Done:  E(RB3LYP) =  -343.346273082     A.U. after   15 cycles
 SCF Done:  E(RB3LYP) =  -343.352281378     A.U. after   13 cycles
 SCF Done:  E(RB3LYP) =  -343.356688255     A.U. after   14 cycles
 SCF Done:  E(RB3LYP) =  -343.360999027     A.U. after   14 cycles
 SCF Done:  E(RB3LYP) =  -343.366098210     A.U. after   14 cycles
 SCF Done:  E(RB3LYP) =  -343.370267226     A.U. after   14 cycles
 SCF Done:  E(RB3LYP) =  -343.372401145     A.U. after   14 cycles
 SCF Done:  E(RB3LYP) =  -343.372711946     A.U. after   13 cycles
 SCF Done:  E(RB3LYP) =  -343.372723245     A.U. after   13 cycles
 SCF Done:  E(RB3LYP) =  -343.372723279     A.U. after    9 cycles
 Optimization completed.
    -- Stationary point found.
 ******    1 imaginary frequencies (negative Signs) ******
    1 imaginary frequencies ignored.
 Normal termination of Gaussian 16 at Wed Dec 23 23:10:53 2020.

 ---------------------------------------------------------------------
 #N Geom=AllCheck Guess=TCheck SCRF=Check GenChk RB3LYP/6-31+G(d) Freq
 ---------------------------------------------------------------------

 Structure from the checkpoint file:  "/scratch/bell/zhao922/YARP/paper-example/KHP-network/pp_0/TS-folder/Gau-20583.chk"
 ---------
 pp_1_0 TS
 ---------
 Charge =  0 Multiplicity = 1

                         Standard orientation:
 ---------------------------------------------------------------------
 Center     Atomic      Atomic             Coordinates (Angstroms)
 Number     Number       Type             X           Y           Z
 ---------------------------------------------------------------------
      1          6           0       -0.541258   -0.620130    0.438506
      2          6           0        1.367900    1.261628   -0.060557
      3          6           0        2.086843    0.077821   -0.047688
      4          8           0       -1.547695    0.217272    0.560781
      5          8           0       -2.500300    0.006621   -0.522685
      6          8           0        1.600410   -1.072602   -0.302507
      7          1           0       -2.803510    0.927147   -0.648945
      8          1           0        0.029414   -0.738795    1.346904
      9          1           0       -0.604029   -1.363338   -0.341434
     10          1           0        3.162095    0.117010    0.205893
     11          1           0        0.510732    1.340533   -0.724131
     12          1           0        1.805072    2.191205    0.295428
 ---------------------------------------------------------------------

 SCF Done:  E(RB3LYP) =  -343.372723279     A.U. after    1 cycles

 The electronic state is 1-A.
 Alpha  occ. eigenvalues --  -19.32235 -19.28377 -19.12199 -10.33364 -10.23595
 Alpha  occ. eigenvalues --  -10.16225  -1.21859  -1.01803  -0.99473  -0.71437
 Alpha  occ. eigenvalues --   -0.70964  -0.61944  -0.56392  -0.54442  -0.52548
 Alpha  occ. eigenvalues --   -0.47203  -0.45234  -0.42896  -0.41226  -0.37548
 Alpha  occ. eigenvalues --   -0.36772  -0.34277  -0.24416  -0.19728
 Alpha virt. eigenvalues --   -0.11254  -0.07007  -0.00987   0.02596   0.02811
 Alpha virt. eigenvalues --    0.03563   0.04720   0.05507   0.07009   0.08032
 Alpha virt. eigenvalues --    0.08779   0.10081   0.10870   0.13149   0.13807

 Mulliken charges:
               1
     1  C   -0.197851
     2  C   -0.524056
     3  C    0.096413
     4  O    0.009795
     5  O   -0.454297
     6  O   -0.494654
     7  H    0.485520
     8  H    0.280693
     9  H    0.285512
    10  H    0.158497
    11  H    0.176329
    12  H    0.178100
 Sum of Mulliken charges =  -0.00000

 Dipole moment (field-independent basis, Debye):
    X=             -3.9326    Y=              1.6521    Z=              0.7725  Tot=              4.3349
 Quadrupole moment (field-independent basis, Debye-Ang):
   XX=            -34.2806   YY=            -37.5449   ZZ=            -36.8921
   XY=             -1.0168   XZ=              4.0943   YZ=             -2.8715

  Exact polarizability: 114.665  10.957  68.168  -2.105  -1.266  44.405
 Approx polarizability: 213.920  18.487 115.575 -18.215   0.500  66.757

 ******    1 imaginary frequencies (negative Signs) ******

                      1                      2                      3
                      A                      A                      A
 Frequencies --   -484.3442                70.4021               113.1006
 Red. masses --      3.2532                 4.2613                 4.3581
 Frc consts  --      0.4496                 0.0124                 0.0328
 IR Inten    --     82.5414                 0.6495                 3.0667

                      4                      5                      6
                      A                      A                      A
 Frequencies --    161.0107               191.2976               263.0365
 Red. masses --      2.5506                 1.4868                 2.5070
 Frc consts  --      0.0390                 0.0321                 0.1022
 IR Inten    --     98.3120                70.1422                 7.8877

                      7                      8                      9
                      A                      A                      A
 Frequencies --    346.5834               472.8302               546.8873
 Red. masses --      4.0829                 1.8953                 2.0526
 Frc consts  --      0.2890                 0.2497                 0.3617
 IR Inten    --    151.8183                 9.1229                 5.8016

                     10                     11                     12
                      A                      A                      A
 Frequencies --    628.3908               655.1167               721.2303
 Red. masses --      1.7831                 1.2345                 1.2639
 Frc consts  --      0.4148                 0.3122                 0.3874
 IR Inten    --    115.8002                56.2382                81.9026

                     13                     14                     15
                      A                      A                      A
 Frequencies --    827.4497               864.8959               989.0611
 Red. masses --      3.3998                 1.6184                 1.4167
 Frc consts  --      1.3715                 0.7133                 0.8165
 IR Inten    --     96.0360                63.4991                26.8369

                     16                     17                     18
                      A                      A                      A
 Frequencies --   1013.8719              1188.3821              1239.6470
 Red. masses --      1.6966                 1.4184                 2.1773
 Frc consts  --      1.0275                 1.1802                 1.9713
 IR Inten    --      8.7754                 4.3102                 4.3322

                     19                     20                     21
                      A                      A                      A
 Frequencies --   1245.6777              1331.6569              1402.7174
 Red. masses --      2.9110                 1.4407                 1.1091
 Frc consts  --      2.6614                 1.5053                 1.2858
 IR Inten    --    211.4374                46.3150                 3.9246

                     22                     23                     24
                      A                      A                      A
 Frequencies --   1448.4868              1471.7627              1547.8668
 Red. masses --      1.3362                 1.7054                 2.7034
 Frc consts  --      1.6518                 2.1764                 3.8161
 IR Inten    --    206.4772                24.1322               124.6498

                     25                     26                     27
                      A                      A                      A
 Frequencies --   2985.1982              3154.3191              3236.5181
 Red. masses --      1.0832                 1.0551                 1.1143
 Frc consts  --      5.6873                 6.1855                 6.8771
 IR Inten    --    100.4392                 9.0635                10.0638

                     28                     29                     30
                      A                      A                      A
 Frequencies --   3239.5253              3392.0608              3687.0291
 Red. masses --      1.0436                 1.1324                 1.0685
 Frc consts  --      6.4531                 7.6766                 8.5582
 IR Inten    --     15.1447                15.5215               110.4585

 - Thermochemistry -
 -------------------
 Temperature   298.150 Kelvin.  Pressure   1.00000 Atm.
 Atom     1 has atomic number  6 and mass  12.00000

 Molecular mass:    90.03169 amu.
 Principal axes and moments of inertia in atomic units:
                           1         2         3
     Eigenvalues --   246.496501055.728601186.60465
           X            0.99984   0.01473   0.01040
           Y           -0.01433   0.99919  -0.03763
           Z           -0.01094   0.03747   0.99924
 This molecule is an asymmetric top.
 Rotational symmetry number  1.
 Rotational temperatures (Kelvin)      0.35138     0.08204     0.07299
 Rotational constants (GHZ):           7.32157     1.70947     1.52093
    1 imaginary frequencies ignored.
 Zero-point vibrational energy     229898.4 (Joules/Mol)
                                   54.94704 (Kcal/Mol)
 Warning -- explicit consideration of   8 degrees of freedom as
           vibrations may cause significant error
 Vibrational temperatures:    101.29   162.73   231.66   275.23   378.45
          (Kelvin)            498.66   680.30   786.85   904.11   942.57
                             1037.69  1190.52  1244.39  1423.04  1458.74
                             1709.82  1783.58  1792.25  1915.96  2018.20
                             2084.05  2117.54  2227.04  4295.03  4538.36
                             4656.63  4660.95  4880.42  5304.81

 Zero-point correction=                           0.087564 (Hartree/Particle)
 Thermal correction to Energy=                    0.095034
 Thermal correction to Enthalpy=                  0.095978
 Thermal correction to Gibbs Free Energy=         0.055773
 Sum of electronic and zero-point Energies=           -343.285160
 Sum of electronic and thermal Energies=              -343.277689
 Sum of electronic and thermal Enthalpies=            -343.276745
 Sum of electronic and thermal Free Energies=         -343.316950

                     E (Thermal)             CV                S
                      KCal/Mol        Cal/Mol-Kelvin    Cal/Mol-Kelvin
 Total                   59.635             25.021             84.619
 Electronic               0.000              0.000              0.000
 Translational            0.889              2.981             39.405
 Rotational               0.889              2.981             27.226
 Vibrational             57.857             19.059             17.988
 Vibration     1          0.598              1.968              4.142
 Vibration     2          0.607              1.939              3.215
 Vibration     3          0.622              1.890              2.538
 Vibration     4          0.634              1.852              2.215
 Vibration     5          0.670              1.741              1.642
 Vibration     6          0.725              1.582              1.182
 Vibration     7          0.830              1.310              0.730
 Vibration     8          0.902              1.146              0.551

 Optimization completed.
    -- Stationary point found.
 Normal termination of Gaussian 16 at Wed Dec 23 23:11:09 2020.
