 Gaussian 16, Revision B.01,
 Gaussian 16:  ES64L-G16RevB.01 20-Dec-2017

 --------------------------------------------------------------
 # B3LYP/6-31+G* OPT=(TS, CALCALL, NOEIGEN, maxcycles=100) Freq
 --------------------------------------------------------------

 ----------
 pp_16_0 TS
 ----------
 Symbolic Z-matrix:
 Charge =  0 Multiplicity = 1

 SCF Done:  E(RB3LYP) =  -343.353091572     A.U. after   17 cycles
 SCF Done:  E(RB3LYP) =  -343.358430345     A.U. after   15 cycles
 SCF Done:  E(RB3LYP) =  -343.360695851     A.U. after   15 cycles
 SCF Done:  E(RB3LYP) =  -343.361322553     A.U. after   13 cycles
 SCF Done:  E(RB3LYP) =  -343.361332214     A.U. after   11 cycles
 Optimization completed.
    -- Stationary point found.
 ******    1 imaginary frequencies (negative Signs) ******
    1 imaginary frequencies ignored.
 Normal termination of Gaussian 16 at Wed Dec 23 23:08:51 2020.

 ---------------------------------------------------------------------
 #N Geom=AllCheck Guess=TCheck SCRF=Check GenChk RB3LYP/6-31+G(d) Freq
 ---------------------------------------------------------------------

 Structure from the checkpoint file:  "/scratch/bell/zhao922/YARP/paper-example/KHP-network/pp_0/TS-folder/Gau-20227.chk"
 ----------
 pp_16_0 TS
 ----------
 Charge =  0 Multiplicity = 1

                         Standard orientation:
 ---------------------------------------------------------------------
 Center     Atomic      Atomic             Coordinates (Angstroms)
 Number     Number       Type             X           Y           Z
 ---------------------------------------------------------------------
      1          6           0       -0.366200   -0.367183   -0.342451
      2          6           0        0.310246    0.856465    0.197307
      3          6           0        2.381578    0.459405   -0.147098
      4          8           0       -1.612876   -0.702342    0.296823
      5          8           0       -2.561260    0.362364   -0.033682
      6          8           0        2.609270   -0.664405    0.106304
      7          1           0       -3.282682   -0.176373   -0.404730
      8          1           0       -0.534097   -0.300192   -1.426056
      9          1           0        0.226122   -1.269603   -0.128696
     10          1           0        1.879219    1.410549   -0.342376
     11          1           0        0.362997    0.877083    1.291191
     12          1           0       -0.086379    1.801479   -0.191442
 ---------------------------------------------------------------------

 SCF Done:  E(RB3LYP) =  -343.361332214     A.U. after    1 cycles

 The electronic state is 1-A.
 Alpha  occ. eigenvalues --  -19.24611 -19.21077 -19.20954 -10.33788 -10.24130
 Alpha  occ. eigenvalues --  -10.18502  -1.13726  -1.11400  -0.91586  -0.74909
 Alpha  occ. eigenvalues --   -0.66589  -0.59775  -0.52931  -0.51977  -0.48119
 Alpha  occ. eigenvalues --   -0.47919  -0.46123  -0.44381  -0.40656  -0.40163
 Alpha  occ. eigenvalues --   -0.35118  -0.32155  -0.26433  -0.21583
 Alpha virt. eigenvalues --   -0.07677  -0.02657   0.00130   0.00603   0.01722
 Alpha virt. eigenvalues --    0.03354   0.04457   0.05775   0.06145   0.07812
 Alpha virt. eigenvalues --    0.08467   0.08991   0.10713   0.12424   0.13201

 Mulliken charges:
               1
     1  C   -0.205108
     2  C   -0.684439
     3  C    0.161743
     4  O   -0.135127
     5  O   -0.541380
     6  O   -0.278121
     7  H    0.470204
     8  H    0.186923
     9  H    0.207437
    10  H    0.373525
    11  H    0.228916
    12  H    0.215427
 Sum of Mulliken charges =  -0.00000

 Dipole moment (field-independent basis, Debye):
    X=              0.6212    Y=              1.2073    Z=             -1.7809  Tot=              2.2395
 Quadrupole moment (field-independent basis, Debye-Ang):
   XX=            -35.4993   YY=            -36.5523   ZZ=            -36.0717
   XY=              5.5955   XZ=              3.1337   YZ=              0.4844

  Exact polarizability:  94.228  -4.986  51.234  -2.901  -0.724  40.928
 Approx polarizability: 147.225 -20.849  81.346  -7.295  -3.445  56.693

 ******    1 imaginary frequencies (negative Signs) ******

                      1                      2                      3
                      A                      A                      A
 Frequencies --  -1691.9645                52.0689                80.5323
 Red. masses --      1.2555                 4.8690                 4.4969
 Frc consts  --      2.1177                 0.0078                 0.0172
 IR Inten    --    532.5264                 0.5075                 7.2424

                      4                      5                      6
                      A                      A                      A
 Frequencies --    141.8975               169.3003               177.9712
 Red. masses --      3.4112                 5.8254                 1.1431
 Frc consts  --      0.0405                 0.0984                 0.0213
 IR Inten    --     11.3221                 5.5593               134.6671

                      7                      8                      9
                      A                      A                      A
 Frequencies --    285.9096               415.7796               514.0860
 Red. masses --      3.1439                 3.8818                 3.2022
 Frc consts  --      0.1514                 0.3954                 0.4986
 IR Inten    --     28.6683                 3.3036                43.2526

                     10                     11                     12
                      A                      A                      A
 Frequencies --    584.6225               674.1920               840.4414
 Red. masses --      2.0594                 1.5769                 1.6840
 Frc consts  --      0.4147                 0.4223                 0.7008
 IR Inten    --     99.4543                 0.4295                26.2410

                     13                     14                     15
                      A                      A                      A
 Frequencies --    873.9930               913.9187               970.5783
 Red. masses --      2.3923                 1.4402                 5.5492
 Frc consts  --      1.0767                 0.7087                 3.0799
 IR Inten    --      8.8664                10.7016                16.7954

                     16                     17                     18
                      A                      A                      A
 Frequencies --   1034.4805              1074.8005              1202.6909
 Red. masses --      1.6233                 2.5193                 1.5557
 Frc consts  --      1.0235                 1.7147                 1.3258
 IR Inten    --     29.4018                40.5958                 4.6787

                     19                     20                     21
                      A                      A                      A
 Frequencies --   1330.2951              1370.3479              1390.8896
 Red. masses --      1.0894                 1.1297                 1.1889
 Frc consts  --      1.1359                 1.2499                 1.3551
 IR Inten    --      4.8854                29.7158                99.7187

                     22                     23                     24
                      A                      A                      A
 Frequencies --   1474.7434              1484.4087              1873.9834
 Red. masses --      1.1503                 1.1005                 6.3357
 Frc consts  --      1.4740                 1.4287                13.1092
 IR Inten    --     15.9869                 9.1494               552.8043

                     25                     26                     27
                      A                      A                      A
 Frequencies --   3018.8072              3061.8634              3067.1072
 Red. masses --      1.0554                 1.0609                 1.1002
 Frc consts  --      5.6668                 5.8598                 6.0978
 IR Inten    --     31.9777                22.5209                19.6219

                     28                     29                     30
                      A                      A                      A
 Frequencies --   3132.9068              3191.6105              3709.6228
 Red. masses --      1.1105                 1.1292                 1.0684
 Frc consts  --      6.4218                 6.7768                 8.6628
 IR Inten    --     21.4105                19.4943                41.6881

 - Thermochemistry -
 -------------------
 Temperature   298.150 Kelvin.  Pressure   1.00000 Atm.
 Atom     1 has atomic number  6 and mass  12.00000

 Molecular mass:    90.03169 amu.
 Principal axes and moments of inertia in atomic units:
                           1         2         3
     Eigenvalues --   162.450101246.066741353.14891
           X            0.99993   0.01033   0.00602
           Y           -0.01051   0.99945   0.03156
           Z           -0.00569  -0.03162   0.99948
 This molecule is an asymmetric top.
 Rotational symmetry number  1.
 Rotational temperatures (Kelvin)      0.53317     0.06951     0.06401
 Rotational constants (GHZ):          11.10951     1.44835     1.33373
    1 imaginary frequencies ignored.
 Zero-point vibrational energy     227971.4 (Joules/Mol)
                                   54.48648 (Kcal/Mol)
 Warning -- explicit consideration of   9 degrees of freedom as
           vibrations may cause significant error
 Vibrational temperatures:     74.92   115.87   204.16   243.59   256.06
          (Kelvin)            411.36   598.21   739.66   841.14   970.01
                             1209.21  1257.48  1314.93  1396.45  1488.39
                             1546.40  1730.40  1914.00  1971.62  2001.18
                             2121.83  2135.73  2696.24  4343.39  4405.34
                             4412.88  4507.55  4592.02  5337.32

 Zero-point correction=                           0.086830 (Hartree/Particle)
 Thermal correction to Energy=                    0.094701
 Thermal correction to Enthalpy=                  0.095646
 Thermal correction to Gibbs Free Energy=         0.054122
 Sum of electronic and zero-point Energies=           -343.274502
 Sum of electronic and thermal Energies=              -343.266631
 Sum of electronic and thermal Enthalpies=            -343.265687
 Sum of electronic and thermal Free Energies=         -343.307210

                     E (Thermal)             CV                S
                      KCal/Mol        Cal/Mol-Kelvin    Cal/Mol-Kelvin
 Total                   59.426             25.262             87.393
 Electronic               0.000              0.000              0.000
 Translational            0.889              2.981             39.405
 Rotational               0.889              2.981             27.107
 Vibrational             57.649             19.301             20.881
 Vibration     1          0.596              1.977              4.737
 Vibration     2          0.600              1.962              3.878
 Vibration     3          0.615              1.911              2.778
 Vibration     4          0.625              1.880              2.443
 Vibration     5          0.628              1.869              2.350
 Vibration     6          0.684              1.700              1.498
 Vibration     7          0.779              1.436              0.906
 Vibration     8          0.869              1.219              0.624
 Vibration     9          0.942              1.065              0.477

 Optimization completed.
    -- Stationary point found.
 Normal termination of Gaussian 16 at Wed Dec 23 23:09:06 2020.
