 Gaussian 16, Revision B.01,
 Gaussian 16:  ES64L-G16RevB.01 20-Dec-2017

 --------------------------------------------------------------
 # B3LYP/6-31+G* OPT=(TS, CALCALL, NOEIGEN, maxcycles=100) Freq
 --------------------------------------------------------------

 ----------
 pp_15_1 TS
 ----------
 Symbolic Z-matrix:
 Charge =  0 Multiplicity = 1

 SCF Done:  E(RB3LYP) =  -343.360503929     A.U. after   16 cycles
 SCF Done:  E(RB3LYP) =  -343.373394998     A.U. after   14 cycles
 SCF Done:  E(RB3LYP) =  -343.383262335     A.U. after   14 cycles
 SCF Done:  E(RB3LYP) =  -343.386827440     A.U. after   14 cycles
 SCF Done:  E(RB3LYP) =  -343.388137386     A.U. after   15 cycles
 SCF Done:  E(RB3LYP) =  -343.388857449     A.U. after   15 cycles
 SCF Done:  E(RB3LYP) =  -343.389159599     A.U. after   14 cycles
 SCF Done:  E(RB3LYP) =  -343.389301677     A.U. after   14 cycles
 SCF Done:  E(RB3LYP) =  -343.389504510     A.U. after   14 cycles
 SCF Done:  E(RB3LYP) =  -343.389949879     A.U. after   14 cycles
 SCF Done:  E(RB3LYP) =  -343.390928610     A.U. after   14 cycles
 SCF Done:  E(RB3LYP) =  -343.391968843     A.U. after   14 cycles
 SCF Done:  E(RB3LYP) =  -343.392190276     A.U. after   13 cycles
 SCF Done:  E(RB3LYP) =  -343.392231012     A.U. after   12 cycles
 SCF Done:  E(RB3LYP) =  -343.392231596     A.U. after   10 cycles
 Optimization completed.
    -- Stationary point found.
 ******    1 imaginary frequencies (negative Signs) ******
    1 imaginary frequencies ignored.
 Normal termination of Gaussian 16 at Wed Dec 23 22:05:24 2020.

 ---------------------------------------------------------------------
 #N Geom=AllCheck Guess=TCheck SCRF=Check GenChk RB3LYP/6-31+G(d) Freq
 ---------------------------------------------------------------------

 Structure from the checkpoint file:  "/scratch/bell/zhao922/YARP/paper-example/KHP-network/pp_0/TS-folder/Gau-65044.chk"
 ----------
 pp_15_1 TS
 ----------
 Charge =  0 Multiplicity = 1

                         Standard orientation:
 ---------------------------------------------------------------------
 Center     Atomic      Atomic             Coordinates (Angstroms)
 Number     Number       Type             X           Y           Z
 ---------------------------------------------------------------------
      1          6           0        0.334376   -0.498471   -0.863855
      2          6           0       -0.651942   -1.082593    0.101527
      3          6           0       -1.761616   -0.100932    0.443895
      4          8           0        1.004312    0.586318   -0.487964
      5          8           0        2.340557    0.049688    0.712957
      6          8           0       -1.772641    1.040542    0.023728
      7          1           0        3.007220    0.735840    0.529674
      8          1           0        0.776306   -1.125484   -1.641371
      9          1           0       -0.098131    0.875769   -0.841918
     10          1           0       -2.571119   -0.463751    1.102640
     11          1           0       -0.126239   -1.325298    1.041983
     12          1           0       -1.090764   -2.017484   -0.270172
 ---------------------------------------------------------------------

 SCF Done:  E(RB3LYP) =  -343.392231596     A.U. after    1 cycles

 The electronic state is 1-A.
 Alpha  occ. eigenvalues --  -19.24512 -19.21154 -19.11037 -10.32951 -10.29899
 Alpha  occ. eigenvalues --  -10.24374  -1.11361  -1.09610  -0.89974  -0.81451
 Alpha  occ. eigenvalues --   -0.67005  -0.60003  -0.56570  -0.52090  -0.50625
 Alpha  occ. eigenvalues --   -0.48205  -0.46225  -0.45964  -0.40812  -0.38390
 Alpha  occ. eigenvalues --   -0.33791  -0.30928  -0.24108  -0.23190
 Alpha virt. eigenvalues --   -0.09721  -0.07367  -0.00605   0.00686   0.02077
 Alpha virt. eigenvalues --    0.03245   0.04369   0.05089   0.06992   0.07670
 Alpha virt. eigenvalues --    0.08413   0.09642   0.10893   0.13290   0.13738

 Mulliken charges:
               1
     1  C   -0.201778
     2  C   -0.438087
     3  C    0.193231
     4  O   -0.161109
     5  O   -0.781531
     6  O   -0.341765
     7  H    0.431117
     8  H    0.203367
     9  H    0.377267
    10  H    0.188658
    11  H    0.295935
    12  H    0.234695
 Sum of Mulliken charges =   0.00000

 Dipole moment (field-independent basis, Debye):
    X=             -3.5236    Y=             -2.3476    Z=             -1.3694  Tot=              4.4499
 Quadrupole moment (field-independent basis, Debye-Ang):
   XX=            -39.6583   YY=            -35.1945   ZZ=            -36.0807
   XY=              7.1358   XZ=             -5.2004   YZ=              0.3886

  Exact polarizability:  86.859   4.859  53.397  13.456   1.199  54.128
 Approx polarizability: 155.422  12.554  85.995  58.514   4.400 103.563

 ******    1 imaginary frequencies (negative Signs) ******

                      1                      2                      3
                      A                      A                      A
 Frequencies --  -1552.6341                89.9883               143.3560
 Red. masses --      1.2121                 5.1309                 3.5334
 Frc consts  --      1.7215                 0.0245                 0.0428
 IR Inten    --    222.1819                 4.0150                20.7837

                      4                      5                      6
                      A                      A                      A
 Frequencies --    177.9480               200.2579               218.4130
 Red. masses --      1.2851                 3.9996                 2.2044
 Frc consts  --      0.0240                 0.0945                 0.0620
 IR Inten    --    145.8173                18.2826                12.7541

                      7                      8                      9
                      A                      A                      A
 Frequencies --    346.8454               457.1193               468.0767
 Red. masses --      2.4874                 3.9324                 3.6879
 Frc consts  --      0.1763                 0.4841                 0.4761
 IR Inten    --     26.0002                94.4361                71.9067

                     10                     11                     12
                      A                      A                      A
 Frequencies --    668.5232               733.3485               834.8245
 Red. masses --      1.6556                 1.2704                 1.7305
 Frc consts  --      0.4360                 0.4025                 0.7106
 IR Inten    --      6.4911                21.0820                30.3358

                     13                     14                     15
                      A                      A                      A
 Frequencies --    843.6240               880.1200               909.3994
 Red. masses --      1.7339                 1.8696                 1.6598
 Frc consts  --      0.7270                 0.8532                 0.8087
 IR Inten    --    127.2213                56.1702               106.9310

                     16                     17                     18
                      A                      A                      A
 Frequencies --    986.2966              1055.0543              1214.0614
 Red. masses --      1.8286                 1.9654                 1.2481
 Frc consts  --      1.0481                 1.2890                 1.0839
 IR Inten    --     19.1647                58.0069                 5.8815

                     19                     20                     21
                      A                      A                      A
 Frequencies --   1297.7302              1340.5683              1390.1466
 Red. masses --      2.2518                 1.7736                 1.2882
 Frc consts  --      2.2343                 1.8779                 1.4667
 IR Inten    --     81.0437                51.1328                29.6453

                     22                     23                     24
                      A                      A                      A
 Frequencies --   1430.0172              1440.5976              1787.2556
 Red. masses --      1.5774                 1.1612                 8.5076
 Frc consts  --      1.9005                 1.4198                16.0114
 IR Inten    --     22.7119                36.0866               116.9482

                     25                     26                     27
                      A                      A                      A
 Frequencies --   1964.2761              3001.7457              3012.5076
 Red. masses --      1.0787                 1.0730                 1.0840
 Frc consts  --      2.4522                 5.6962                 5.7961
 IR Inten    --    323.3304                16.8280                72.1123

                     28                     29                     30
                      A                      A                      A
 Frequencies --   3086.7354              3141.5070              3731.6641
 Red. masses --      1.0912                 1.0891                 1.0678
 Frc consts  --      6.1254                 6.3330                 8.7611
 IR Inten    --      6.6570                14.7753                27.8716

 - Thermochemistry -
 -------------------
 Temperature   298.150 Kelvin.  Pressure   1.00000 Atm.
 Atom     1 has atomic number  6 and mass  12.00000

 Molecular mass:    90.03169 amu.
 Principal axes and moments of inertia in atomic units:
                           1         2         3
     Eigenvalues --   278.26146 874.69424 942.48629
           X            0.99952   0.02866  -0.01196
           Y           -0.02860   0.99958   0.00502
           Z            0.01210  -0.00467   0.99992
 This molecule is an asymmetric top.
 Rotational symmetry number  1.
 Rotational temperatures (Kelvin)      0.31127     0.09902     0.09190
 Rotational constants (GHZ):           6.48578     2.06328     1.91487
    1 imaginary frequencies ignored.
 Zero-point vibrational energy     220424.0 (Joules/Mol)
                                   52.68259 (Kcal/Mol)
 Warning -- explicit consideration of   8 degrees of freedom as
           vibrations may cause significant error
 Vibrational temperatures:    129.47   206.26   256.03   288.13   314.25
          (Kelvin)            499.03   657.69   673.46   961.86  1055.12
                             1201.13  1213.79  1266.30  1308.42  1419.06
                             1517.99  1746.76  1867.14  1928.78  2000.11
                             2057.48  2072.70  2571.46  2826.16  4318.84
                             4334.33  4441.12  4519.93  5369.03

 Zero-point correction=                           0.083955 (Hartree/Particle)
 Thermal correction to Energy=                    0.091357
 Thermal correction to Enthalpy=                  0.092301
 Thermal correction to Gibbs Free Energy=         0.052637
 Sum of electronic and zero-point Energies=           -343.308277
 Sum of electronic and thermal Energies=              -343.300875
 Sum of electronic and thermal Enthalpies=            -343.299931
 Sum of electronic and thermal Free Energies=         -343.339594

                     E (Thermal)             CV                S
                      KCal/Mol        Cal/Mol-Kelvin    Cal/Mol-Kelvin
 Total                   57.327             24.972             83.479
 Electronic               0.000              0.000              0.000
 Translational            0.889              2.981             39.405
 Rotational               0.889              2.981             26.931
 Vibrational             55.550             19.010             17.143
 Vibration     1          0.602              1.956              3.660
 Vibration     2          0.616              1.910              2.759
 Vibration     3          0.628              1.869              2.350
 Vibration     4          0.638              1.840              2.131
 Vibration     5          0.646              1.813              1.972
 Vibration     6          0.725              1.582              1.180
 Vibration     7          0.815              1.345              0.775
 Vibration     8          0.825              1.321              0.743

 Optimization completed.
    -- Stationary point found.
 Normal termination of Gaussian 16 at Wed Dec 23 22:05:40 2020.
