 Gaussian 16, Revision B.01,
 Gaussian 16:  ES64L-G16RevB.01 20-Dec-2017

 --------------------------------------------------------------
 # B3LYP/6-31+G* OPT=(TS, CALCALL, NOEIGEN, maxcycles=100) Freq
 --------------------------------------------------------------

 ----------
 pp_23_0 TS
 ----------
 Symbolic Z-matrix:
 Charge =  0 Multiplicity = 1

 SCF Done:  E(RB3LYP) =  -343.281106130     A.U. after   19 cycles
 SCF Done:  E(RB3LYP) =  -343.293206413     A.U. after   17 cycles
 SCF Done:  E(RB3LYP) =  -343.307325690     A.U. after   17 cycles
 SCF Done:  E(RB3LYP) =  -343.323409576     A.U. after   18 cycles
 SCF Done:  E(RB3LYP) =  -343.338860784     A.U. after   18 cycles
 SCF Done:  E(RB3LYP) =  -343.343919731     A.U. after   16 cycles
 SCF Done:  E(RB3LYP) =  -343.344193660     A.U. after   15 cycles
 SCF Done:  E(RB3LYP) =  -343.344207727     A.U. after   14 cycles
 SCF Done:  E(RB3LYP) =  -343.344207818     A.U. after   11 cycles
 Optimization completed.
    -- Stationary point found.
 ******    1 imaginary frequencies (negative Signs) ******
    1 imaginary frequencies ignored.
 Normal termination of Gaussian 16 at Wed Dec 23 22:04:33 2020.

 ---------------------------------------------------------------------
 #N Geom=AllCheck Guess=TCheck SCRF=Check GenChk RB3LYP/6-31+G(d) Freq
 ---------------------------------------------------------------------

 Structure from the checkpoint file:  "/scratch/bell/zhao922/YARP/paper-example/KHP-network/pp_0/TS-folder/Gau-106854.chk"
 ----------
 pp_23_0 TS
 ----------
 Charge =  0 Multiplicity = 1

                         Standard orientation:
 ---------------------------------------------------------------------
 Center     Atomic      Atomic             Coordinates (Angstroms)
 Number     Number       Type             X           Y           Z
 ---------------------------------------------------------------------
      1          6           0       -1.198873    0.841168    0.048934
      2          6           0        0.243179    1.251778   -0.191478
      3          6           0        1.269653    0.254189    0.424029
      4          8           0       -1.509369   -0.582489   -0.171435
      5          8           0       -0.483558   -1.348782    0.167586
      6          8           0        1.744344   -0.606144   -0.431471
      7          1           0        0.634148   -0.406337    1.183999
      8          1           0       -1.479887    0.994244    1.102797
      9          1           0       -1.915341    1.365354   -0.587944
     10          1           0        2.032944    0.686603    1.108088
     11          1           0        0.366771    2.252254    0.248084
     12          1           0        0.466271    1.324384   -1.261375
 ---------------------------------------------------------------------

 SCF Done:  E(RB3LYP) =  -343.344207818     A.U. after    1 cycles

 The electronic state is 1-A.
 Alpha  occ. eigenvalues --  -19.28750 -19.24800 -19.17629 -10.28019 -10.26866
 Alpha  occ. eigenvalues --  -10.22100  -1.20102  -1.02561  -0.89084  -0.79249
 Alpha  occ. eigenvalues --   -0.67105  -0.62511  -0.54279  -0.52667  -0.50023
 Alpha  occ. eigenvalues --   -0.46662  -0.46250  -0.44125  -0.41331  -0.40344
 Alpha  occ. eigenvalues --   -0.38133  -0.29330  -0.27116  -0.25639
 Alpha virt. eigenvalues --   -0.18093  -0.00555   0.01425   0.01975   0.02683
 Alpha virt. eigenvalues --    0.04141   0.04947   0.05823   0.07421   0.08535
 Alpha virt. eigenvalues --    0.08982   0.10676   0.11797   0.13552   0.14462

 Mulliken charges:
               1
     1  C   -0.365245
     2  C   -0.281065
     3  C   -0.214895
     4  O   -0.084859
     5  O   -0.097818
     6  O   -0.290721
     7  H    0.227401
     8  H    0.221975
     9  H    0.221020
    10  H    0.214235
    11  H    0.208692
    12  H    0.241281
 Sum of Mulliken charges =  -0.00000

 Dipole moment (field-independent basis, Debye):
    X=             -1.4798    Y=              4.3365    Z=              1.5514  Tot=              4.8375
 Quadrupole moment (field-independent basis, Debye-Ang):
   XX=            -38.5387   YY=            -37.0828   ZZ=            -34.9874
   XY=             -0.0064   XZ=              2.5064   YZ=             -0.6377

  Exact polarizability:  86.449   3.581  54.919   1.804   1.653  45.525
 Approx polarizability: 296.124  44.697  91.076  -3.494   4.820  70.590

 ******    1 imaginary frequencies (negative Signs) ******

                      1                      2                      3
                      A                      A                      A
 Frequencies --   -900.1408               127.8812               218.1439
 Red. masses --      1.2465                 2.9491                 2.9722
 Frc consts  --      0.5951                 0.0284                 0.0833
 IR Inten    --    151.1376                 3.5077                20.1805

                      4                      5                      6
                      A                      A                      A
 Frequencies --    311.4041               385.8611               466.3304
 Red. masses --     10.0599                 5.7857                 2.9906
 Frc consts  --      0.5748                 0.5075                 0.3832
 IR Inten    --      0.4937                 1.5586                 7.9238

                      7                      8                      9
                      A                      A                      A
 Frequencies --    560.1528               654.7252               777.2751
 Red. masses --      5.6036                 2.3156                 4.6010
 Frc consts  --      1.0359                 0.5848                 1.6378
 IR Inten    --     11.7128                25.6146                 8.8548

                     10                     11                     12
                      A                      A                      A
 Frequencies --    852.5494               919.2684              1044.1284
 Red. masses --      3.0288                 2.2807                 1.9481
 Frc consts  --      1.2971                 1.1355                 1.2514
 IR Inten    --     20.1806                 4.4903                 3.8341

                     13                     14                     15
                      A                      A                      A
 Frequencies --   1057.4684              1090.9002              1155.3287
 Red. masses --      1.8235                 3.5929                 1.2402
 Frc consts  --      1.2014                 2.5192                 0.9753
 IR Inten    --     28.6828               225.2914                16.9897

                     16                     17                     18
                      A                      A                      A
 Frequencies --   1196.9279              1226.8247              1249.9724
 Red. masses --      1.4298                 1.3719                 1.2698
 Frc consts  --      1.2069                 1.2165                 1.1689
 IR Inten    --     27.3981                49.6068                16.6206

                     19                     20                     21
                      A                      A                      A
 Frequencies --   1278.3565              1364.3404              1369.9069
 Red. masses --      1.3095                 1.5346                 1.4848
 Frc consts  --      1.2609                 1.6830                 1.6417
 IR Inten    --     11.4124                 4.9227                 3.1434

                     22                     23                     24
                      A                      A                      A
 Frequencies --   1405.9881              1482.9464              1498.3186
 Red. masses --      1.4398                 1.0818                 1.1156
 Frc consts  --      1.6770                 1.4017                 1.4756
 IR Inten    --     12.9523                 9.1151                 6.9061

                     25                     26                     27
                      A                      A                      A
 Frequencies --   2028.7058              2888.9133              3018.3713
 Red. masses --      1.0941                 1.0752                 1.0702
 Frc consts  --      2.6530                 5.2871                 5.7444
 IR Inten    --     35.1997                21.3776                14.7246

                     28                     29                     30
                      A                      A                      A
 Frequencies --   3040.3349              3107.6216              3139.4162
 Red. masses --      1.0661                 1.0973                 1.0952
 Frc consts  --      5.8061                 6.2435                 6.3598
 IR Inten    --     14.9242                10.1643                13.1660

 - Thermochemistry -
 -------------------
 Temperature   298.150 Kelvin.  Pressure   1.00000 Atm.
 Atom     1 has atomic number  6 and mass  12.00000

 Molecular mass:    90.03169 amu.
 Principal axes and moments of inertia in atomic units:
                           1         2         3
     Eigenvalues --   324.09724 533.48600 769.42301
           X            0.99956  -0.02509   0.01599
           Y            0.02519   0.99966  -0.00659
           Z           -0.01582   0.00699   0.99985
 This molecule is an asymmetric top.
 Rotational symmetry number  1.
 Rotational temperatures (Kelvin)      0.26725     0.16235     0.11257
 Rotational constants (GHZ):           5.56852     3.38292     2.34558
    1 imaginary frequencies ignored.
 Zero-point vibrational energy     232783.5 (Joules/Mol)
                                   55.63659 (Kcal/Mol)
 Warning -- explicit consideration of   6 degrees of freedom as
           vibrations may cause significant error
 Vibrational temperatures:    183.99   313.86   448.04   555.17   670.95
          (Kelvin)            805.93   942.00  1118.33  1226.63  1322.62
                             1502.27  1521.46  1569.56  1662.26  1722.11
                             1765.13  1798.43  1839.27  1962.98  1970.99
                             2022.90  2133.63  2155.75  2918.86  4156.50
                             4342.76  4374.36  4471.17  4516.92

 Zero-point correction=                           0.088663 (Hartree/Particle)
 Thermal correction to Energy=                    0.094405
 Thermal correction to Enthalpy=                  0.095349
 Thermal correction to Gibbs Free Energy=         0.059348
 Sum of electronic and zero-point Energies=           -343.255545
 Sum of electronic and thermal Energies=              -343.249803
 Sum of electronic and thermal Enthalpies=            -343.248859
 Sum of electronic and thermal Free Energies=         -343.284860

                     E (Thermal)             CV                S
                      KCal/Mol        Cal/Mol-Kelvin    Cal/Mol-Kelvin
 Total                   59.240             20.353             75.772
 Electronic               0.000              0.000              0.000
 Translational            0.889              2.981             39.405
 Rotational               0.889              2.981             26.389
 Vibrational             57.463             14.391              9.977
 Vibration     1          0.611              1.925              2.978
 Vibration     2          0.646              1.813              1.974
 Vibration     3          0.700              1.652              1.355
 Vibration     4          0.755              1.500              1.016
 Vibration     5          0.824              1.325              0.748
 Vibration     6          0.916              1.118              0.524

 Optimization completed.
    -- Stationary point found.
 Normal termination of Gaussian 16 at Wed Dec 23 22:04:50 2020.
