 Gaussian 16, Revision B.01,
 Gaussian 16:  ES64L-G16RevB.01 20-Dec-2017

 --------------------------------------------------------------
 # B3LYP/6-31+G* OPT=(TS, CALCALL, NOEIGEN, maxcycles=100) Freq
 --------------------------------------------------------------

 ----------
 pp_20_0 TS
 ----------
 Symbolic Z-matrix:
 Charge =  0 Multiplicity = 1

 SCF Done:  E(RB3LYP) =  -343.301030742     A.U. after   18 cycles
 SCF Done:  E(RB3LYP) =  -343.313982520     A.U. after   14 cycles
 SCF Done:  E(RB3LYP) =  -343.324704829     A.U. after   14 cycles
 SCF Done:  E(RB3LYP) =  -343.334214911     A.U. after   13 cycles
 SCF Done:  E(RB3LYP) =  -343.343067324     A.U. after   13 cycles
 SCF Done:  E(RB3LYP) =  -343.351415840     A.U. after   13 cycles
 SCF Done:  E(RB3LYP) =  -343.358060125     A.U. after   13 cycles
 SCF Done:  E(RB3LYP) =  -343.360769967     A.U. after   13 cycles
 SCF Done:  E(RB3LYP) =  -343.361407174     A.U. after   13 cycles
 SCF Done:  E(RB3LYP) =  -343.362066744     A.U. after   13 cycles
 SCF Done:  E(RB3LYP) =  -343.363004123     A.U. after   13 cycles
 SCF Done:  E(RB3LYP) =  -343.363910142     A.U. after   13 cycles
 SCF Done:  E(RB3LYP) =  -343.364853517     A.U. after   14 cycles
 SCF Done:  E(RB3LYP) =  -343.365077097     A.U. after   12 cycles
 SCF Done:  E(RB3LYP) =  -343.365092730     A.U. after   11 cycles
 SCF Done:  E(RB3LYP) =  -343.365092935     A.U. after   10 cycles
 Optimization completed.
    -- Stationary point found.
 ******    1 imaginary frequencies (negative Signs) ******
    1 imaginary frequencies ignored.
 Normal termination of Gaussian 16 at Wed Dec 23 22:07:21 2020.

 ---------------------------------------------------------------------
 #N Geom=AllCheck Guess=TCheck SCRF=Check GenChk RB3LYP/6-31+G(d) Freq
 ---------------------------------------------------------------------

 Structure from the checkpoint file:  "/scratch/bell/zhao922/YARP/paper-example/KHP-network/pp_0/TS-folder/Gau-95911.chk"
 ----------
 pp_20_0 TS
 ----------
 Charge =  0 Multiplicity = 1

                         Standard orientation:
 ---------------------------------------------------------------------
 Center     Atomic      Atomic             Coordinates (Angstroms)
 Number     Number       Type             X           Y           Z
 ---------------------------------------------------------------------
      1          6           0       -0.865923    1.018374    0.323989
      2          6           0        0.497555    0.921443   -0.259840
      3          6           0        1.414582   -0.030314    0.191891
      4          8           0       -1.805732    0.079071   -0.298172
      5          8           0       -1.344326   -1.246790    0.088236
      6          8           0        2.544668   -0.425582   -0.134646
      7          1           0       -1.371599   -1.701982   -0.774833
      8          1           0       -0.899479    0.834749    1.404928
      9          1           0       -1.342514    1.980375    0.118464
     10          1           0        0.429597   -0.859618    0.370075
     11          1           0        1.010580   -0.466893    1.248363
     12          1           0        0.739250    1.502765   -1.146581
 ---------------------------------------------------------------------

 SCF Done:  E(RB3LYP) =  -343.365092935     A.U. after    1 cycles

 The electronic state is 1-A.
 Alpha  occ. eigenvalues --  -19.26941 -19.25458 -19.12103 -10.29131 -10.27876
 Alpha  occ. eigenvalues --  -10.22594  -1.16580  -1.02095  -0.95849  -0.82111
 Alpha  occ. eigenvalues --   -0.70140  -0.62881  -0.57801  -0.51842  -0.51255
 Alpha  occ. eigenvalues --   -0.48743  -0.43989  -0.42124  -0.41880  -0.40077
 Alpha  occ. eigenvalues --   -0.37766  -0.30666  -0.26696  -0.23656
 Alpha virt. eigenvalues --   -0.08448  -0.03468  -0.00179   0.00907   0.01358
 Alpha virt. eigenvalues --    0.03482   0.04914   0.06032   0.07303   0.08216
 Alpha virt. eigenvalues --    0.09316   0.10729   0.11361   0.12841   0.13492

 Mulliken charges:
               1
     1  C   -0.535149
     2  C    0.110599
     3  C   -0.046114
     4  O   -0.127277
     5  O   -0.497044
     6  O   -0.507200
     7  H    0.511059
     8  H    0.218986
     9  H    0.224692
    10  H    0.234828
    11  H    0.193953
    12  H    0.218666
 Sum of Mulliken charges =  -0.00000

 Dipole moment (field-independent basis, Debye):
    X=             -3.7203    Y=              0.4068    Z=              0.2299  Tot=              3.7495
 Quadrupole moment (field-independent basis, Debye-Ang):
   XX=            -53.5488   YY=            -31.4767   ZZ=            -34.3731
   XY=              1.8681   XZ=              2.5486   YZ=              1.4595

  Exact polarizability:  75.393  -7.815  58.674   0.238  -3.623  44.675
 Approx polarizability: 123.815 -27.287 103.047   4.836 -13.326  67.821

 ******    1 imaginary frequencies (negative Signs) ******

                      1                      2                      3
                      A                      A                      A
 Frequencies --  -1136.2615                88.4581               164.2167
 Red. masses --      1.1975                 6.1333                 4.4383
 Frc consts  --      0.9109                 0.0283                 0.0705
 IR Inten    --    553.1478                 7.5483                16.6383

                      4                      5                      6
                      A                      A                      A
 Frequencies --    237.3637               357.9401               376.5304
 Red. masses --      1.2819                 2.3636                 2.8875
 Frc consts  --      0.0426                 0.1784                 0.2412
 IR Inten    --    103.0402                13.9611                22.3260

                      7                      8                      9
                      A                      A                      A
 Frequencies --    486.3096               503.7852               526.4609
 Red. masses --      2.5319                 1.7248                 2.4305
 Frc consts  --      0.3528                 0.2579                 0.3969
 IR Inten    --     16.0166                30.6702                23.9135

                     10                     11                     12
                      A                      A                      A
 Frequencies --    625.4185               785.8843               840.4495
 Red. masses --      2.9622                 2.2576                 2.9811
 Frc consts  --      0.6827                 0.8215                 1.2406
 IR Inten    --     24.8489                20.0762                76.3694

                     13                     14                     15
                      A                      A                      A
 Frequencies --    903.9722               946.2375              1037.3727
 Red. masses --      4.9603                 1.8534                 1.2965
 Frc consts  --      2.3882                 0.9777                 0.8220
 IR Inten    --      2.2209                 8.7237               124.5560

                     16                     17                     18
                      A                      A                      A
 Frequencies --   1126.8372              1205.9976              1258.1430
 Red. masses --      2.4030                 1.4956                 1.2698
 Frc consts  --      1.7977                 1.2816                 1.1842
 IR Inten    --      5.2097                42.9923                 2.3089

                     19                     20                     21
                      A                      A                      A
 Frequencies --   1287.6558              1353.8319              1375.4906
 Red. masses --      1.1290                 1.2375                 1.1572
 Frc consts  --      1.1029                 1.3364                 1.2899
 IR Inten    --      2.5650                20.2201                40.3630

                     22                     23                     24
                      A                      A                      A
 Frequencies --   1407.8802              1496.6819              1628.7559
 Red. masses --      2.1036                 1.1280                 1.0951
 Frc consts  --      2.4567                 1.4887                 1.7116
 IR Inten    --     11.3209                 9.4421               159.8753

                     25                     26                     27
                      A                      A                      A
 Frequencies --   1727.7443              2218.4323              3062.1635
 Red. masses --      7.5658                 1.0798                 1.0666
 Frc consts  --     13.3065                 3.1310                 5.8924
 IR Inten    --    497.8769                56.4506                22.3655

                     28                     29                     30
                      A                      A                      A
 Frequencies --   3141.7930              3203.0519              3695.9869
 Red. masses --      1.0997                 1.0898                 1.0682
 Frc consts  --      6.3954                 6.5873                 8.5970
 IR Inten    --      5.2448                 3.5676                83.9160

 - Thermochemistry -
 -------------------
 Temperature   298.150 Kelvin.  Pressure   1.00000 Atm.
 Atom     1 has atomic number  6 and mass  12.00000

 Molecular mass:    90.03169 amu.
 Principal axes and moments of inertia in atomic units:
                           1         2         3
     Eigenvalues --   254.51757 845.853041029.13768
           X            0.99999  -0.00494   0.00088
           Y            0.00493   0.99999   0.00228
           Z           -0.00089  -0.00228   1.00000
 This molecule is an asymmetric top.
 Rotational symmetry number  1.
 Rotational temperatures (Kelvin)      0.34031     0.10240     0.08416
 Rotational constants (GHZ):           7.09083     2.13363     1.75364
    1 imaginary frequencies ignored.
 Zero-point vibrational energy     221732.9 (Joules/Mol)
                                   52.99543 (Kcal/Mol)
 Warning -- explicit consideration of   8 degrees of freedom as
           vibrations may cause significant error
 Vibrational temperatures:    127.27   236.27   341.51   515.00   541.74
          (Kelvin)            699.69   724.83   757.46   899.84  1130.71
                             1209.22  1300.61  1361.42  1492.55  1621.27
                             1735.16  1810.19  1852.65  1947.86  1979.02
                             2025.63  2153.39  2343.42  2485.84  3191.83
                             4405.77  4520.34  4608.48  5317.70

 Zero-point correction=                           0.084454 (Hartree/Particle)
 Thermal correction to Energy=                    0.091038
 Thermal correction to Enthalpy=                  0.091982
 Thermal correction to Gibbs Free Energy=         0.054058
 Sum of electronic and zero-point Energies=           -343.280639
 Sum of electronic and thermal Energies=              -343.274055
 Sum of electronic and thermal Enthalpies=            -343.273111
 Sum of electronic and thermal Free Energies=         -343.311034

                     E (Thermal)             CV                S
                      KCal/Mol        Cal/Mol-Kelvin    Cal/Mol-Kelvin
 Total                   57.127             23.179             79.818
 Electronic               0.000              0.000              0.000
 Translational            0.889              2.981             39.405
 Rotational               0.889              2.981             26.896
 Vibrational             55.350             17.218             13.516
 Vibration     1          0.601              1.957              3.694
 Vibration     2          0.623              1.886              2.501
 Vibration     3          0.656              1.783              1.823
 Vibration     4          0.733              1.559              1.131
 Vibration     5          0.747              1.520              1.053
 Vibration     6          0.842              1.280              0.693
 Vibration     7          0.859              1.242              0.649
 Vibration     8          0.881              1.191              0.595

 Optimization completed.
    -- Stationary point found.
 Normal termination of Gaussian 16 at Wed Dec 23 22:07:42 2020.
