 Gaussian 16, Revision B.01,
 Gaussian 16:  ES64L-G16RevB.01 20-Dec-2017

 --------------------------------------------------------------
 # B3LYP/6-31+G* OPT=(TS, CALCALL, NOEIGEN, maxcycles=100) Freq
 --------------------------------------------------------------

 ----------
 pp_22_1 TS
 ----------
 Symbolic Z-matrix:
 Charge =  0 Multiplicity = 1

 SCF Done:  E(RB3LYP) =  -343.425252367     A.U. after   14 cycles
 SCF Done:  E(RB3LYP) =  -343.442036775     A.U. after   13 cycles
 SCF Done:  E(RB3LYP) =  -343.442568547     A.U. after   12 cycles
 SCF Done:  E(RB3LYP) =  -343.442779159     A.U. after   11 cycles
 SCF Done:  E(RB3LYP) =  -343.442779949     A.U. after    9 cycles
 Optimization completed.
    -- Stationary point found.
 ******    1 imaginary frequencies (negative Signs) ******
    1 imaginary frequencies ignored.
 Normal termination of Gaussian 16 at Wed Dec 23 22:03:08 2020.

 ---------------------------------------------------------------------
 #N Geom=AllCheck Guess=TCheck SCRF=Check GenChk RB3LYP/6-31+G(d) Freq
 ---------------------------------------------------------------------

 Structure from the checkpoint file:  "/scratch/bell/zhao922/YARP/paper-example/KHP-network/pp_0/TS-folder/Gau-106440.chk"
 ----------
 pp_22_1 TS
 ----------
 Charge =  0 Multiplicity = 1

                         Standard orientation:
 ---------------------------------------------------------------------
 Center     Atomic      Atomic             Coordinates (Angstroms)
 Number     Number       Type             X           Y           Z
 ---------------------------------------------------------------------
      1          6           0       -1.196981    0.546708    0.486719
      2          6           0       -0.120761    1.253831   -0.345181
      3          6           0        1.022616    0.261959   -0.440896
      4          8           0       -1.331010   -0.771564   -0.070280
      5          8           0        0.015820   -1.203317   -0.335580
      6          8           0        1.669618   -0.105956    0.635933
      7          1           0        0.772505   -1.047102    0.614654
      8          1           0       -0.902915    0.482271    1.541596
      9          1           0       -2.189986    0.995765    0.402347
     10          1           0        1.526817    0.170832   -1.412491
     11          1           0        0.229110    2.165596    0.150837
     12          1           0       -0.500207    1.504339   -1.341371
 ---------------------------------------------------------------------

 SCF Done:  E(RB3LYP) =  -343.442779949     A.U. after    1 cycles

 The electronic state is 1-A.
 Alpha  occ. eigenvalues --  -19.24790 -19.24233 -19.14505 -10.31943 -10.26968
 Alpha  occ. eigenvalues --  -10.22360  -1.15908  -1.04493  -0.91774  -0.80277
 Alpha  occ. eigenvalues --   -0.68082  -0.61548  -0.54769  -0.53802  -0.51024
 Alpha  occ. eigenvalues --   -0.46611  -0.43710  -0.42767  -0.42095  -0.39372
 Alpha  occ. eigenvalues --   -0.39165  -0.30883  -0.28853  -0.27561
 Alpha virt. eigenvalues --   -0.02530  -0.00957   0.00191   0.01674   0.02722
 Alpha virt. eigenvalues --    0.03550   0.04757   0.06451   0.06850   0.08305
 Alpha virt. eigenvalues --    0.08836   0.11110   0.12332   0.14013   0.14782

 Mulliken charges:
               1
     1  C   -0.318906
     2  C   -0.318165
     3  C    0.116436
     4  O   -0.180456
     5  O   -0.282973
     6  O   -0.602486
     7  H    0.487698
     8  H    0.222456
     9  H    0.215225
    10  H    0.201063
    11  H    0.239496
    12  H    0.220613
 Sum of Mulliken charges =  -0.00000

 Dipole moment (field-independent basis, Debye):
    X=             -1.5484    Y=              2.7341    Z=             -0.6832  Tot=              3.2155
 Quadrupole moment (field-independent basis, Debye-Ang):
   XX=            -40.4019   YY=            -35.6763   ZZ=            -35.4914
   XY=             -2.6173   XZ=             -4.5806   YZ=             -1.7060

  Exact polarizability:  56.273  -0.163  48.379  -0.746  -0.483  44.996
 Approx polarizability:  82.551   3.829  71.331   2.414   0.789  65.103

 ******    1 imaginary frequencies (negative Signs) ******

                      1                      2                      3
                      A                      A                      A
 Frequencies --  -1742.2464               207.7234               290.4179
 Red. masses --      1.1192                 4.0987                 3.4397
 Frc consts  --      2.0016                 0.1042                 0.1709
 IR Inten    --    500.1743                10.8260                40.0818

                      4                      5                      6
                      A                      A                      A
 Frequencies --    360.9490               404.5391               580.3114
 Red. masses --      3.9455                 2.5422                 7.4969
 Frc consts  --      0.3029                 0.2451                 1.4875
 IR Inten    --    158.1346                17.3161                 6.5209

                      7                      8                      9
                      A                      A                      A
 Frequencies --    628.4194               700.2064               857.6605
 Red. masses --      3.1955                 3.6481                 1.8602
 Frc consts  --      0.7435                 1.0538                 0.8062
 IR Inten    --     10.2196                 0.7794                 3.2275

                     10                     11                     12
                      A                      A                      A
 Frequencies --    883.4137               902.2759               964.0487
 Red. masses --      3.4375                 2.9517                 2.3384
 Frc consts  --      1.5806                 1.4158                 1.2804
 IR Inten    --     14.4530                 2.6792                 7.6328

                     13                     14                     15
                      A                      A                      A
 Frequencies --   1012.7548              1064.0960              1100.1196
 Red. masses --      2.7950                 1.5816                 1.9980
 Frc consts  --      1.6890                 1.0551                 1.4247
 IR Inten    --      8.2711                16.6397                15.0147

                     16                     17                     18
                      A                      A                      A
 Frequencies --   1211.9885              1246.6793              1270.3234
 Red. masses --      1.3549                 1.1674                 1.2125
 Frc consts  --      1.1726                 1.0690                 1.1528
 IR Inten    --     23.3378                25.9743                47.7033

                     19                     20                     21
                      A                      A                      A
 Frequencies --   1317.6848              1351.6601              1384.2267
 Red. masses --      1.5870                 1.4736                 1.2735
 Frc consts  --      1.6235                 1.5862                 1.4377
 IR Inten    --     98.7524                18.2701                14.6276

                     22                     23                     24
                      A                      A                      A
 Frequencies --   1486.5821              1488.2797              1521.8497
 Red. masses --      2.0045                 1.1767                 1.1451
 Frc consts  --      2.6100                 1.5356                 1.5625
 IR Inten    --    176.2485                39.9341                13.9546

                     25                     26                     27
                      A                      A                      A
 Frequencies --   1868.8349              3061.8753              3065.7615
 Red. masses --      1.0551                 1.0648                 1.0816
 Frc consts  --      2.1711                 5.8816                 5.9893
 IR Inten    --     73.0565                33.6621                20.7043

                     28                     29                     30
                      A                      A                      A
 Frequencies --   3081.4768              3129.2378              3142.6736
 Red. masses --      1.0662                 1.1046                 1.1046
 Frc consts  --      5.9649                 6.3726                 6.4278
 IR Inten    --     27.9239                 7.5872                15.6776

 - Thermochemistry -
 -------------------
 Temperature   298.150 Kelvin.  Pressure   1.00000 Atm.
 Atom     1 has atomic number  6 and mass  12.00000

 Molecular mass:    90.03169 amu.
 Principal axes and moments of inertia in atomic units:
                           1         2         3
     Eigenvalues --   309.53614 477.47079 632.83313
           X            0.99656  -0.07535  -0.03452
           Y            0.07434   0.99679  -0.02974
           Z            0.03665   0.02708   0.99896
 This molecule is an asymmetric top.
 Rotational symmetry number  1.
 Rotational temperatures (Kelvin)      0.27982     0.18140     0.13687
 Rotational constants (GHZ):           5.83047     3.77979     2.85184
    1 imaginary frequencies ignored.
 Zero-point vibrational energy     236777.3 (Joules/Mol)
                                   56.59113 (Kcal/Mol)
 Warning -- explicit consideration of   5 degrees of freedom as
           vibrations may cause significant error
 Vibrational temperatures:    298.87   417.85   519.33   582.04   834.94
          (Kelvin)            904.16  1007.44  1233.98  1271.04  1298.17
                             1387.05  1457.13  1531.00  1582.83  1743.78
                             1793.69  1827.71  1895.85  1944.74  1991.59
                             2138.86  2141.30  2189.60  2688.84  4405.36
                             4410.95  4433.56  4502.28  4521.61

 Zero-point correction=                           0.090184 (Hartree/Particle)
 Thermal correction to Energy=                    0.095471
 Thermal correction to Enthalpy=                  0.096416
 Thermal correction to Gibbs Free Energy=         0.061621
 Sum of electronic and zero-point Energies=           -343.352596
 Sum of electronic and thermal Energies=              -343.347309
 Sum of electronic and thermal Enthalpies=            -343.346364
 Sum of electronic and thermal Free Energies=         -343.381159

                     E (Thermal)             CV                S
                      KCal/Mol        Cal/Mol-Kelvin    Cal/Mol-Kelvin
 Total                   59.909             19.483             73.230
 Electronic               0.000              0.000              0.000
 Translational            0.889              2.981             39.405
 Rotational               0.889              2.981             26.039
 Vibrational             58.132             13.521              7.786
 Vibration     1          0.641              1.829              2.064
 Vibration     2          0.686              1.692              1.472
 Vibration     3          0.735              1.553              1.118
 Vibration     4          0.770              1.460              0.946
 Vibration     5          0.937              1.074              0.485

 Optimization completed.
    -- Stationary point found.
 Normal termination of Gaussian 16 at Wed Dec 23 22:03:26 2020.
