 Gaussian 16, Revision B.01,
 Gaussian 16:  ES64L-G16RevB.01 20-Dec-2017

 --------------------------------------------------------------
 # B3LYP/6-31+G* OPT=(TS, CALCALL, NOEIGEN, maxcycles=100) Freq
 --------------------------------------------------------------

 ----------
 pp_24_0 TS
 ----------
 Symbolic Z-matrix:
 Charge =  0 Multiplicity = 1

 SCF Done:  E(RB3LYP) =  -342.991125354     A.U. after   23 cycles
 SCF Done:  E(RB3LYP) =  -343.099859918     A.U. after   16 cycles
 SCF Done:  E(RB3LYP) =  -343.179151724     A.U. after   15 cycles
 SCF Done:  E(RB3LYP) =  -343.244191397     A.U. after   14 cycles
 SCF Done:  E(RB3LYP) =  -343.310085288     A.U. after   14 cycles
 SCF Done:  E(RB3LYP) =  -343.344469182     A.U. after   14 cycles
 SCF Done:  E(RB3LYP) =  -343.380337019     A.U. after   14 cycles
 SCF Done:  E(RB3LYP) =  -343.402335822     A.U. after   13 cycles
 SCF Done:  E(RB3LYP) =  -343.417778193     A.U. after   13 cycles
 SCF Done:  E(RB3LYP) =  -343.429044330     A.U. after   13 cycles
 SCF Done:  E(RB3LYP) =  -343.459639219     A.U. after   12 cycles
 SCF Done:  E(RB3LYP) =  -343.459686677     A.U. after   12 cycles
 SCF Done:  E(RB3LYP) =  -343.459720108     A.U. after   12 cycles
 SCF Done:  E(RB3LYP) =  -343.459743538     A.U. after   12 cycles
 SCF Done:  E(RB3LYP) =  -343.459759145     A.U. after   12 cycles
 SCF Done:  E(RB3LYP) =  -343.459766481     A.U. after   12 cycles
 SCF Done:  E(RB3LYP) =  -343.459768549     A.U. after   11 cycles
 SCF Done:  E(RB3LYP) =  -343.459768800     A.U. after   10 cycles
 SCF Done:  E(RB3LYP) =  -343.459768805     A.U. after    9 cycles
 Optimization completed.
    -- Stationary point found.
 ******    1 imaginary frequencies (negative Signs) ******
    1 imaginary frequencies ignored.
 Normal termination of Gaussian 16 at Wed Dec 23 22:14:14 2020.

 ---------------------------------------------------------------------
 #N Geom=AllCheck Guess=TCheck SCRF=Check GenChk RB3LYP/6-31+G(d) Freq
 ---------------------------------------------------------------------

 Structure from the checkpoint file:  "/scratch/bell/zhao922/YARP/paper-example/KHP-network/pp_0/TS-folder/Gau-107208.chk"
 ----------
 pp_24_0 TS
 ----------
 Charge =  0 Multiplicity = 1

                         Standard orientation:
 ---------------------------------------------------------------------
 Center     Atomic      Atomic             Coordinates (Angstroms)
 Number     Number       Type             X           Y           Z
 ---------------------------------------------------------------------
      1          6           0        3.206036    0.445997    0.000024
      2          6           0       -1.531224   -1.341370    0.000012
      3          6           0       -1.487208    0.176520   -0.000001
      4          8           0        2.310477   -0.516190   -0.000014
      5          8           0       -0.243187    0.726141   -0.000023
      6          8           0       -2.462813    0.888194    0.000006
      7          1           0        0.456736    0.041956   -0.000027
      8          1           0        2.767366    1.466467    0.000068
      9          1           0        3.433584   -0.821866   -0.000040
     10          1           0       -1.024278   -1.742956    0.885926
     11          1           0       -2.570532   -1.672668    0.000033
     12          1           0       -1.024311   -1.742969   -0.885915
 ---------------------------------------------------------------------

 SCF Done:  E(RB3LYP) =  -343.459768805     A.U. after    1 cycles

 The electronic state is 1-A.
 Alpha  occ. eigenvalues --  -19.25648 -19.19918 -19.14349 -10.32800 -10.31736
 Alpha  occ. eigenvalues --  -10.21183  -1.14022  -1.10238  -1.02241  -0.75880
 Alpha  occ. eigenvalues --   -0.64791  -0.62872  -0.58185  -0.51794  -0.47329
 Alpha  occ. eigenvalues --   -0.47016  -0.46584  -0.45005  -0.42280  -0.40050
 Alpha  occ. eigenvalues --   -0.37878  -0.32156  -0.27963  -0.26662
 Alpha virt. eigenvalues --   -0.10654  -0.03051   0.00011   0.00803   0.02382
 Alpha virt. eigenvalues --    0.03959   0.04367   0.05255   0.05903   0.06821
 Alpha virt. eigenvalues --    0.08478   0.09161   0.09731   0.10390   0.11740

 Mulliken charges:
               1
     1  C   -0.264898
     2  C   -0.836355
     3  C    0.674429
     4  O   -0.369101
     5  O   -0.639286
     6  O   -0.451801
     7  H    0.533685
     8  H    0.200179
     9  H    0.443595
    10  H    0.231272
    11  H    0.247008
    12  H    0.231273
 Sum of Mulliken charges =  -0.00000

 Dipole moment (field-independent basis, Debye):
    X=              3.6817    Y=             -3.3920    Z=              0.0000  Tot=              5.0061
 Quadrupole moment (field-independent basis, Debye-Ang):
   XX=            -42.3623   YY=            -36.9211   ZZ=            -35.9439
   XY=              5.4257   XZ=             -0.0000   YZ=              0.0001

  Exact polarizability:  64.942   0.405  54.215  -0.000   0.000  35.181
 Approx polarizability:  84.245   1.022  77.285   0.000   0.001  47.410

 ******    1 imaginary frequencies (negative Signs) ******

                      1                      2                      3
                      A                      A                      A
 Frequencies --  -2117.0742                17.2795                25.4831
 Red. masses --      1.1117                 4.3236                 4.0940
 Frc consts  --      2.9357                 0.0008                 0.0016
 IR Inten    --   1103.8193                 0.0336                 8.4716

                      4                      5                      6
                      A                      A                      A
 Frequencies --     66.8442                90.2128               100.0463
 Red. masses --      2.0067                 5.1198                 1.3276
 Frc consts  --      0.0053                 0.0245                 0.0078
 IR Inten    --      3.0682                 0.8330                 1.1213

                      7                      8                      9
                      A                      A                      A
 Frequencies --    169.0796               191.5874               441.6249
 Red. masses --      1.4042                 5.9065                 2.8740
 Frc consts  --      0.0237                 0.1277                 0.3303
 IR Inten    --      0.1049                 5.2139                 2.6241

                     10                     11                     12
                      A                      A                      A
 Frequencies --    569.9924               604.6895               687.1583
 Red. masses --      2.3404                 5.8445                 1.1317
 Frc consts  --      0.4480                 1.2591                 0.3148
 IR Inten    --     41.7427                 8.3578               127.7913

                     13                     14                     15
                      A                      A                      A
 Frequencies --    768.8487               869.5617              1007.3828
 Red. masses --      1.1364                 6.1261                 1.5327
 Frc consts  --      0.3958                 2.7292                 0.9164
 IR Inten    --     56.8566                24.6826                11.4997

                     16                     17                     18
                      A                      A                      A
 Frequencies --   1070.2817              1248.2831              1317.6625
 Red. masses --      1.7500                 2.3741                 2.0922
 Frc consts  --      1.1811                 2.1796                 2.1403
 IR Inten    --      5.4144                47.3145               228.5339

                     19                     20                     21
                      A                      A                      A
 Frequencies --   1342.7599              1416.3432              1419.2059
 Red. masses --      1.5085                 2.1308                 1.3244
 Frc consts  --      1.6025                 2.5184                 1.5717
 IR Inten    --    458.6543                63.9524                37.4349

                     22                     23                     24
                      A                      A                      A
 Frequencies --   1494.8874              1507.5288              1850.2030
 Red. masses --      1.0500                 1.0449                 9.2493
 Frc consts  --      1.3825                 1.3991                18.6552
 IR Inten    --      5.8906                10.0307               330.6574

                     25                     26                     27
                      A                      A                      A
 Frequencies --   2556.8320              2946.0963              3053.4145
 Red. masses --      1.0401                 1.1023                 1.0391
 Frc consts  --      4.0061                 5.6367                 5.7079
 IR Inten    --    215.2402                26.7944                 5.6027

                     28                     29                     30
                      A                      A                      A
 Frequencies --   3111.8925              3174.1387              3602.1813
 Red. masses --      1.1007                 1.1002                 1.0674
 Frc consts  --      6.2804                 6.5310                 8.1601
 IR Inten    --      8.2537                 5.9915               440.6563

 - Thermochemistry -
 -------------------
 Temperature   298.150 Kelvin.  Pressure   1.00000 Atm.
 Atom     1 has atomic number  6 and mass  12.00000

 Molecular mass:    90.03169 amu.
 Principal axes and moments of inertia in atomic units:
                           1         2         3
     Eigenvalues --   223.477511398.903911611.08262
           X            0.99963   0.02716  -0.00000
           Y           -0.02716   0.99963   0.00000
           Z            0.00000  -0.00000   1.00000
 This molecule is an asymmetric top.
 Rotational symmetry number  1.
 Rotational temperatures (Kelvin)      0.38757     0.06192     0.05376
 Rotational constants (GHZ):           8.07572     1.29011     1.12020
    1 imaginary frequencies ignored.
 Zero-point vibrational energy     219643.4 (Joules/Mol)
                                   52.49602 (Kcal/Mol)
 Warning -- explicit consideration of  10 degrees of freedom as
           vibrations may cause significant error
 Vibrational temperatures:     24.86    36.66    96.17   129.80   143.94
          (Kelvin)            243.27   275.65   635.40   820.09   870.01
                              988.67  1106.20  1251.11  1449.40  1539.90
                             1796.00  1895.82  1931.93  2037.80  2041.92
                             2150.81  2169.00  2662.03  3678.71  4238.78
                             4393.18  4477.32  4566.88  5182.74

 Zero-point correction=                           0.083658 (Hartree/Particle)
 Thermal correction to Energy=                    0.092750
 Thermal correction to Enthalpy=                  0.093694
 Thermal correction to Gibbs Free Energy=         0.046661
 Sum of electronic and zero-point Energies=           -343.376111
 Sum of electronic and thermal Energies=              -343.367019
 Sum of electronic and thermal Enthalpies=            -343.366074
 Sum of electronic and thermal Free Energies=         -343.413108

                     E (Thermal)             CV                S
                      KCal/Mol        Cal/Mol-Kelvin    Cal/Mol-Kelvin
 Total                   58.202             26.628             98.990
 Electronic               0.000              0.000              0.000
 Translational            0.889              2.981             39.405
 Rotational               0.889              2.981             27.712
 Vibrational             56.424             20.666             31.873
 Vibration     1          0.593              1.986              6.925
 Vibration     2          0.593              1.985              6.153
 Vibration     3          0.598              1.970              4.244
 Vibration     4          0.602              1.956              3.655
 Vibration     5          0.604              1.949              3.453
 Vibration     6          0.625              1.881              2.446
 Vibration     7          0.634              1.852              2.212
 Vibration     8          0.801              1.379              0.822
 Vibration     9          0.926              1.096              0.504
 Vibration    10          0.963              1.022              0.442

 Optimization completed.
    -- Stationary point found.
 Normal termination of Gaussian 16 at Wed Dec 23 22:14:27 2020.
