 Gaussian 16, Revision B.01,
 Gaussian 16:  ES64L-G16RevB.01 20-Dec-2017

 --------------------------------------------------------------
 # B3LYP/6-31+G* OPT=(TS, CALCALL, NOEIGEN, maxcycles=100) Freq
 --------------------------------------------------------------

 ----------
 pp_20_1 TS
 ----------
 Symbolic Z-matrix:
 Charge =  0 Multiplicity = 1

 SCF Done:  E(RB3LYP) =  -343.246270274     A.U. after   15 cycles
 SCF Done:  E(RB3LYP) =  -343.261880870     A.U. after   16 cycles
 SCF Done:  E(RB3LYP) =  -343.277202447     A.U. after   15 cycles
 SCF Done:  E(RB3LYP) =  -343.285992054     A.U. after   14 cycles
 SCF Done:  E(RB3LYP) =  -343.291501929     A.U. after   15 cycles
 SCF Done:  E(RB3LYP) =  -343.295921264     A.U. after   14 cycles
 SCF Done:  E(RB3LYP) =  -343.298514205     A.U. after   14 cycles
 SCF Done:  E(RB3LYP) =  -343.300534420     A.U. after   14 cycles
 SCF Done:  E(RB3LYP) =  -343.301860713     A.U. after   13 cycles
 SCF Done:  E(RB3LYP) =  -343.302749708     A.U. after   13 cycles
 SCF Done:  E(RB3LYP) =  -343.303870405     A.U. after   14 cycles
 SCF Done:  E(RB3LYP) =  -343.304002845     A.U. after   13 cycles
 SCF Done:  E(RB3LYP) =  -343.304073972     A.U. after   13 cycles
 SCF Done:  E(RB3LYP) =  -343.304103157     A.U. after   13 cycles
 SCF Done:  E(RB3LYP) =  -343.304122652     A.U. after   13 cycles
 SCF Done:  E(RB3LYP) =  -343.304118395     A.U. after   11 cycles
 SCF Done:  E(RB3LYP) =  -343.304134876     A.U. after   12 cycles
 SCF Done:  E(RB3LYP) =  -343.304135798     A.U. after   11 cycles
 SCF Done:  E(RB3LYP) =  -343.304135817     A.U. after   10 cycles
 Optimization completed on the basis of negligible forces.
    -- Stationary point found.
 ******    1 imaginary frequencies (negative Signs) ******
    1 imaginary frequencies ignored.
 Normal termination of Gaussian 16 at Wed Dec 23 22:08:31 2020.

 ---------------------------------------------------------------------
 #N Geom=AllCheck Guess=TCheck SCRF=Check GenChk RB3LYP/6-31+G(d) Freq
 ---------------------------------------------------------------------

 Structure from the checkpoint file:  "/scratch/bell/zhao922/YARP/paper-example/KHP-network/pp_0/TS-folder/Gau-95648.chk"
 ----------
 pp_20_1 TS
 ----------
 Charge =  0 Multiplicity = 1

                         Standard orientation:
 ---------------------------------------------------------------------
 Center     Atomic      Atomic             Coordinates (Angstroms)
 Number     Number       Type             X           Y           Z
 ---------------------------------------------------------------------
      1          6           0        0.404316   -0.834451   -0.221428
      2          6           0       -0.541562    0.316009   -0.464708
      3          6           0       -2.018986    0.383328    0.210397
      4          8           0        1.705798   -0.295462   -0.481895
      5          8           0        2.044796    0.598772    0.625842
      6          8           0       -2.106745   -0.794391    0.388294
      7          1           0        2.892856    0.200109    0.895218
      8          1           0        0.335540   -1.229476    0.797186
      9          1           0        0.348160   -1.665421   -0.938046
     10          1           0       -1.373320    3.712395   -0.425179
     11          1           0       -0.636649    0.594355   -1.521971
     12          1           0       -1.779985    3.127373   -0.210703
 ---------------------------------------------------------------------

 SCF Done:  E(RB3LYP) =  -343.304135817     A.U. after    1 cycles

 The electronic state is 1-A.
 Alpha  occ. eigenvalues --  -19.25286 -19.24459 -19.23259 -10.30212 -10.27274
 Alpha  occ. eigenvalues --  -10.27191  -1.14374  -1.13763  -0.94681  -0.76896
 Alpha  occ. eigenvalues --   -0.65920  -0.57328  -0.55490  -0.51993  -0.48173
 Alpha  occ. eigenvalues --   -0.47361  -0.46292  -0.44613  -0.42351  -0.40292
 Alpha  occ. eigenvalues --   -0.38089  -0.34252  -0.29424  -0.22916
 Alpha virt. eigenvalues --   -0.14325  -0.03670  -0.02095   0.00520   0.02230
 Alpha virt. eigenvalues --    0.03194   0.04503   0.05891   0.07511   0.08034
 Alpha virt. eigenvalues --    0.08577   0.10684   0.11677   0.12540   0.13051

 Mulliken charges:
               1
     1  C   -0.230185
     2  C   -0.070255
     3  C   -0.052445
     4  O   -0.134465
     5  O   -0.529262
     6  O   -0.158200
     7  H    0.479253
     8  H    0.223204
     9  H    0.220741
    10  H   -0.013054
    11  H    0.228533
    12  H    0.036134
 Sum of Mulliken charges =  -0.00000

 Dipole moment (field-independent basis, Debye):
    X=              1.8478    Y=             -1.6950    Z=             -0.1344  Tot=              2.5111
 Quadrupole moment (field-independent basis, Debye-Ang):
   XX=            -37.6076   YY=            -38.9264   ZZ=            -35.1312
   XY=             -1.2535   XZ=              4.5130   YZ=             -0.4504

  Exact polarizability:  85.700   1.350  53.822  -6.314  -0.430  46.318
 Approx polarizability: 159.554  17.750  83.691 -29.644  -3.804  73.546

 ******    1 imaginary frequencies (negative Signs) ******

                      1                      2                      3
                      A                      A                      A
 Frequencies --   -443.5378                31.3012                48.1136
 Red. masses --      4.3019                 1.3102                 1.1505
 Frc consts  --      0.4986                 0.0008                 0.0016
 IR Inten    --     32.4233                 0.8543                 0.8117

                      4                      5                      6
                      A                      A                      A
 Frequencies --     85.5791                99.6088               138.8004
 Red. masses --      4.4933                 1.1433                 4.5020
 Frc consts  --      0.0194                 0.0067                 0.0511
 IR Inten    --      1.5962                 0.5071                 4.2663

                      7                      8                      9
                      A                      A                      A
 Frequencies --    159.5619               200.9740               223.1210
 Red. masses --      1.0193                 1.1413                 1.0244
 Frc consts  --      0.0153                 0.0272                 0.0300
 IR Inten    --      1.0579               128.0663                 1.8949

                     10                     11                     12
                      A                      A                      A
 Frequencies --    245.2213               328.6224               434.6087
 Red. masses --      5.7816                 4.8922                 6.4284
 Frc consts  --      0.2048                 0.3113                 0.7154
 IR Inten    --     14.8177                14.2791                 1.4320

                     13                     14                     15
                      A                      A                      A
 Frequencies --    458.2033               562.4188               837.7049
 Red. masses --      3.3390                 3.3918                 1.8598
 Frc consts  --      0.4130                 0.6321                 0.7690
 IR Inten    --      4.2566                42.4367                 8.7856

                     16                     17                     18
                      A                      A                      A
 Frequencies --    873.6791               982.0728              1013.0618
 Red. masses --      4.1226                 2.2697                 2.7620
 Frc consts  --      1.8541                 1.2897                 1.6701
 IR Inten    --     60.3481                94.6335                 0.4544

                     19                     20                     21
                      A                      A                      A
 Frequencies --   1092.6226              1227.8337              1303.3191
 Red. masses --      3.7813                 1.2914                 1.1907
 Frc consts  --      2.6597                 1.1471                 1.1916
 IR Inten    --      1.4683                19.3756                33.6232

                     22                     23                     24
                      A                      A                      A
 Frequencies --   1358.5041              1392.8680              1487.3669
 Red. masses --      1.2762                 1.1446                 1.1024
 Frc consts  --      1.3877                 1.3083                 1.4369
 IR Inten    --     27.9222                71.7003                 8.6439

                     25                     26                     27
                      A                      A                      A
 Frequencies --   1759.3306              3037.8594              3103.3148
 Red. masses --     11.5880                 1.0632                 1.0881
 Frc consts  --     21.1326                 5.7809                 6.1740
 IR Inten    --    287.5808                23.3818                 6.0877

                     28                     29                     30
                      A                      A                      A
 Frequencies --   3117.8750              3697.0876              4423.7973
 Red. masses --      1.0979                 1.0686                 1.0078
 Frc consts  --      6.2881                 8.6054                11.6205
 IR Inten    --     14.0931                50.1287                 1.6473

 - Thermochemistry -
 -------------------
 Temperature   298.150 Kelvin.  Pressure   1.00000 Atm.
 Atom     1 has atomic number  6 and mass  12.00000

 Molecular mass:    90.03169 amu.
 Principal axes and moments of inertia in atomic units:
                           1         2         3
     Eigenvalues --   274.97414 979.929791107.09936
           X            0.99818  -0.05583   0.02263
           Y            0.05737   0.99558  -0.07441
           Z           -0.01838   0.07557   0.99697
 This molecule is an asymmetric top.
 Rotational symmetry number  1.
 Rotational temperatures (Kelvin)      0.31499     0.08839     0.07824
 Rotational constants (GHZ):           6.56331     1.84170     1.63015
    1 imaginary frequencies ignored.
 Zero-point vibrational energy     201716.9 (Joules/Mol)
                                   48.21150 (Kcal/Mol)
 Warning -- explicit consideration of  13 degrees of freedom as
           vibrations may cause significant error
 Vibrational temperatures:     45.04    69.22   123.13   143.31   199.70
          (Kelvin)            229.57   289.16   321.02   352.82   472.81
                              625.30   659.25   809.20  1205.27  1257.03
                             1412.98  1457.57  1572.04  1766.58  1875.19
                             1954.58  2004.03  2139.99  2531.28  4370.80
                             4464.98  4485.93  5319.28  6364.86

 Zero-point correction=                           0.076830 (Hartree/Particle)
 Thermal correction to Energy=                    0.087120
 Thermal correction to Enthalpy=                  0.088065
 Thermal correction to Gibbs Free Energy=         0.040665
 Sum of electronic and zero-point Energies=           -343.227306
 Sum of electronic and thermal Energies=              -343.217015
 Sum of electronic and thermal Enthalpies=            -343.216071
 Sum of electronic and thermal Free Energies=         -343.263471

                     E (Thermal)             CV                S
                      KCal/Mol        Cal/Mol-Kelvin    Cal/Mol-Kelvin
 Total                   54.669             31.368             99.762
 Electronic               0.000              0.000              0.000
 Translational            0.889              2.981             39.405
 Rotational               0.889              2.981             27.192
 Vibrational             52.891             25.407             33.165
 Vibration     1          0.594              1.983              5.745
 Vibration     2          0.595              1.978              4.893
 Vibration     3          0.601              1.959              3.759
 Vibration     4          0.604              1.949              3.462
 Vibration     5          0.614              1.915              2.820
 Vibration     6          0.621              1.892              2.555
 Vibration     7          0.638              1.839              2.124
 Vibration     8          0.649              1.806              1.934
 Vibration     9          0.660              1.771              1.765
 Vibration    10          0.712              1.618              1.267
 Vibration    11          0.795              1.395              0.844
 Vibration    12          0.816              1.343              0.771
 Vibration    13          0.918              1.113              0.519

 Optimization completed on the basis of negligible forces.
    -- Stationary point found.
 Normal termination of Gaussian 16 at Wed Dec 23 22:08:50 2020.
