 Gaussian 16, Revision B.01,
 Gaussian 16:  ES64L-G16RevB.01 20-Dec-2017

 --------------------------------------------------------------
 # B3LYP/6-31+G* OPT=(TS, CALCALL, NOEIGEN, maxcycles=100) Freq
 --------------------------------------------------------------

 ---------
 pp_2_0 TS
 ---------
 Symbolic Z-matrix:
 Charge =  0 Multiplicity = 1

 SCF Done:  E(RB3LYP) =  -343.273828987     A.U. after   15 cycles
 SCF Done:  E(RB3LYP) =  -343.282012703     A.U. after   14 cycles
 SCF Done:  E(RB3LYP) =  -343.287115040     A.U. after   15 cycles
 SCF Done:  E(RB3LYP) =  -343.289573264     A.U. after   15 cycles
 SCF Done:  E(RB3LYP) =  -343.290902707     A.U. after   15 cycles
 SCF Done:  E(RB3LYP) =  -343.291230608     A.U. after   15 cycles
 SCF Done:  E(RB3LYP) =  -343.292540143     A.U. after   16 cycles
 SCF Done:  E(RB3LYP) =  -343.296495826     A.U. after   16 cycles
 SCF Done:  E(RB3LYP) =  -343.302178941     A.U. after   15 cycles
 SCF Done:  E(RB3LYP) =  -343.308635040     A.U. after   15 cycles
 SCF Done:  E(RB3LYP) =  -343.388842004     A.U. after   15 cycles
 SCF Done:  E(RB3LYP) =  -343.393776532     A.U. after   15 cycles
 SCF Done:  E(RB3LYP) =  -343.397305110     A.U. after   15 cycles
 SCF Done:  E(RB3LYP) =  -343.399891338     A.U. after   15 cycles
 SCF Done:  E(RB3LYP) =  -343.402139691     A.U. after   15 cycles
 SCF Done:  E(RB3LYP) =  -343.403583220     A.U. after   15 cycles
 SCF Done:  E(RB3LYP) =  -343.404238192     A.U. after   15 cycles
 SCF Done:  E(RB3LYP) =  -343.404365619     A.U. after   15 cycles
 SCF Done:  E(RB3LYP) =  -343.404370853     A.U. after   13 cycles
 Optimization completed.
    -- Stationary point found.
 ******    1 imaginary frequencies (negative Signs) ******
    1 imaginary frequencies ignored.
 Normal termination of Gaussian 16 at Wed Dec 23 23:25:13 2020.

 ---------------------------------------------------------------------
 #N Geom=AllCheck Guess=TCheck SCRF=Check GenChk RB3LYP/6-31+G(d) Freq
 ---------------------------------------------------------------------

 Structure from the checkpoint file:  "/scratch/bell/zhao922/YARP/paper-example/KHP-network/pp_0/TS-folder/Gau-21381.chk"
 ---------
 pp_2_0 TS
 ---------
 Charge =  0 Multiplicity = 1

                         Standard orientation:
 ---------------------------------------------------------------------
 Center     Atomic      Atomic             Coordinates (Angstroms)
 Number     Number       Type             X           Y           Z
 ---------------------------------------------------------------------
      1          6           0       -0.421491   -0.974893   -0.114684
      2          6           0        0.399817   -0.105304    0.774716
      3          6           0        1.740207    0.264040    0.372296
      4          8           0       -1.772753   -0.645326   -0.114860
      5          8           0       -1.704232    1.172853   -0.092490
      6          8           0        2.226509    0.101875   -0.749647
      7          1           0       -1.656998    1.260491   -1.062993
      8          1           0       -0.510866   -1.987781    0.343963
      9          1           0        0.008287   -1.054603   -1.120494
     10          1           0        2.333217    0.787717    1.152387
     11          1           0       -0.680209    0.992035    0.302613
     12          1           0        0.199184   -0.136129    1.846526
 ---------------------------------------------------------------------

 SCF Done:  E(RB3LYP) =  -343.404370853     A.U. after    2 cycles

 The electronic state is 1-A.
 Alpha  occ. eigenvalues --  -19.26595 -19.24425 -19.14202 -10.27386 -10.27349
 Alpha  occ. eigenvalues --  -10.20781  -1.10899  -1.03154  -1.01839  -0.78388
 Alpha  occ. eigenvalues --   -0.66776  -0.60841  -0.55008  -0.52956  -0.49767
 Alpha  occ. eigenvalues --   -0.47278  -0.45748  -0.43028  -0.40837  -0.39363
 Alpha  occ. eigenvalues --   -0.38466  -0.31864  -0.25886  -0.24491
 Alpha virt. eigenvalues --   -0.17511  -0.02034   0.00662   0.01198   0.02080
 Alpha virt. eigenvalues --    0.03734   0.05845   0.06536   0.06893   0.08132
 Alpha virt. eigenvalues --    0.09003   0.11212   0.12421   0.13091   0.14807

 Mulliken charges:
               1
     1  C   -0.373923
     2  C   -0.344454
     3  C    0.120455
     4  O   -0.119248
     5  O   -0.703627
     6  O   -0.457123
     7  H    0.537548
     8  H    0.259513
     9  H    0.236992
    10  H    0.151891
    11  H    0.476543
    12  H    0.215434
 Sum of Mulliken charges =  -0.00000

 Dipole moment (field-independent basis, Debye):
    X=             -1.6215    Y=              0.2052    Z=              0.7266  Tot=              1.7887
 Quadrupole moment (field-independent basis, Debye-Ang):
   XX=            -48.4171   YY=            -32.8612   ZZ=            -34.6650
   XY=             -1.0666   XZ=              7.5819   YZ=             -2.1817

  Exact polarizability:  97.016  -0.230  56.549   6.243   0.933  51.265
 Approx polarizability: 231.519  -7.980 100.843  19.110   0.846  80.264

 ******    1 imaginary frequencies (negative Signs) ******

                      1                      2                      3
                      A                      A                      A
 Frequencies --  -1284.6334                67.3970               195.7738
 Red. masses --      1.5075                 5.9193                 5.2497
 Frc consts  --      1.4657                 0.0158                 0.1185
 IR Inten    --    117.4827                 3.8374                27.2307

                      4                      5                      6
                      A                      A                      A
 Frequencies --    232.4397               292.5052               322.0211
 Red. masses --      2.9017                 3.4373                 2.7356
 Frc consts  --      0.0924                 0.1733                 0.1671
 IR Inten    --      2.6915                66.5330               158.2502

                      7                      8                      9
                      A                      A                      A
 Frequencies --    499.8354               576.0279               650.9704
 Red. masses --      1.3338                 2.5856                 1.8916
 Frc consts  --      0.1963                 0.5055                 0.4723
 IR Inten    --    132.4168                 1.4205               194.0676

                     10                     11                     12
                      A                      A                      A
 Frequencies --    711.6862               777.1471               871.5239
 Red. masses --      4.6304                 1.4979                 1.0942
 Frc consts  --      1.3818                 0.5330                 0.4897
 IR Inten    --     42.0095                31.9151                26.3207

                     13                     14                     15
                      A                      A                      A
 Frequencies --    947.6226               977.6786              1034.0345
 Red. masses --      1.8339                 1.3810                 2.1922
 Frc consts  --      0.9703                 0.7777                 1.3810
 IR Inten    --     59.0117                47.5644                 2.7798

                     16                     17                     18
                      A                      A                      A
 Frequencies --   1058.3840              1086.5633              1151.4462
 Red. masses --      1.8289                 2.8568                 2.0949
 Frc consts  --      1.2071                 1.9872                 1.6365
 IR Inten    --    134.6253                11.4030                29.7457

                     19                     20                     21
                      A                      A                      A
 Frequencies --   1320.1782              1414.2091              1425.4738
 Red. masses --      1.3157                 1.2562                 1.1096
 Frc consts  --      1.3511                 1.4802                 1.3284
 IR Inten    --     56.7959                22.9754                 3.7819

                     22                     23                     24
                      A                      A                      A
 Frequencies --   1444.4548              1546.2397              1632.7082
 Red. masses --      1.6576                 1.0891                 1.1647
 Frc consts  --      2.0377                 1.5342                 1.8293
 IR Inten    --     23.7705                86.0445                11.2002

                     25                     26                     27
                      A                      A                      A
 Frequencies --   1703.6464              2903.3352              2923.1997
 Red. masses --      5.1347                 1.0665                 1.0822
 Frc consts  --      8.7806                 5.2965                 5.4485
 IR Inten    --    253.7333                21.4695               164.2723

                     28                     29                     30
                      A                      A                      A
 Frequencies --   3085.1308              3155.6970              3721.8535
 Red. masses --      1.0900                 1.0872                 1.0667
 Frc consts  --      6.1125                 6.3792                 8.7059
 IR Inten    --     12.9575                11.6116               165.6065

 - Thermochemistry -
 -------------------
 Temperature   298.150 Kelvin.  Pressure   1.00000 Atm.
 Atom     1 has atomic number  6 and mass  12.00000

 Molecular mass:    90.03169 amu.
 Principal axes and moments of inertia in atomic units:
                           1         2         3
     Eigenvalues --   268.45467 896.88298 982.28193
           X            0.99976   0.00017   0.02192
           Y           -0.00028   0.99999   0.00469
           Z           -0.02192  -0.00469   0.99975
 This molecule is an asymmetric top.
 Rotational symmetry number  1.
 Rotational temperatures (Kelvin)      0.32264     0.09657     0.08818
 Rotational constants (GHZ):           6.72270     2.01224     1.83729
    1 imaginary frequencies ignored.
 Zero-point vibrational energy     225670.6 (Joules/Mol)
                                   53.93658 (Kcal/Mol)
 Warning -- explicit consideration of   7 degrees of freedom as
           vibrations may cause significant error
 Vibrational temperatures:     96.97   281.67   334.43   420.85   463.32
          (Kelvin)            719.15   828.78   936.60  1023.96  1118.14
                             1253.93  1363.42  1406.66  1487.74  1522.78
                             1563.32  1656.67  1899.44  2034.73  2050.94
                             2078.25  2224.69  2349.10  2451.17  4177.25
                             4205.83  4438.82  4540.34  5354.92

 Zero-point correction=                           0.085953 (Hartree/Particle)
 Thermal correction to Energy=                    0.092505
 Thermal correction to Enthalpy=                  0.093449
 Thermal correction to Gibbs Free Energy=         0.055359
 Sum of electronic and zero-point Energies=           -343.318417
 Sum of electronic and thermal Energies=              -343.311866
 Sum of electronic and thermal Enthalpies=            -343.310922
 Sum of electronic and thermal Free Energies=         -343.349011

                     E (Thermal)             CV                S
                      KCal/Mol        Cal/Mol-Kelvin    Cal/Mol-Kelvin
 Total                   58.048             22.788             80.166
 Electronic               0.000              0.000              0.000
 Translational            0.889              2.981             39.405
 Rotational               0.889              2.981             26.961
 Vibrational             56.270             16.826             13.800
 Vibration     1          0.598              1.970              4.228
 Vibration     2          0.636              1.846              2.172
 Vibration     3          0.653              1.791              1.860
 Vibration     4          0.688              1.688              1.459
 Vibration     5          0.707              1.631              1.300
 Vibration     6          0.855              1.250              0.659
 Vibration     7          0.932              1.083              0.493

 Optimization completed.
    -- Stationary point found.
 Normal termination of Gaussian 16 at Wed Dec 23 23:26:02 2020.
