 Gaussian 16, Revision B.01,
 Gaussian 16:  ES64L-G16RevB.01 20-Dec-2017

 --------------------------------------------------------------
 # B3LYP/6-31+G* OPT=(TS, CALCALL, NOEIGEN, maxcycles=100) Freq
 --------------------------------------------------------------

 ----------
 pp_21_0 TS
 ----------
 Symbolic Z-matrix:
 Charge =  0 Multiplicity = 1

 SCF Done:  E(RB3LYP) =  -343.272007443     A.U. after   19 cycles
 SCF Done:  E(RB3LYP) =  -343.303086703     A.U. after   16 cycles
 SCF Done:  E(RB3LYP) =  -343.326072161     A.U. after   15 cycles
 SCF Done:  E(RB3LYP) =  -343.344731292     A.U. after   16 cycles
 SCF Done:  E(RB3LYP) =  -343.353326373     A.U. after   16 cycles
 SCF Done:  E(RB3LYP) =  -343.362112109     A.U. after   15 cycles
 SCF Done:  E(RB3LYP) =  -343.378437171     A.U. after   15 cycles
 SCF Done:  E(RB3LYP) =  -343.386254989     A.U. after   16 cycles
 SCF Done:  E(RB3LYP) =  -343.393716584     A.U. after   15 cycles
 SCF Done:  E(RB3LYP) =  -343.397271884     A.U. after   15 cycles
 SCF Done:  E(RB3LYP) =  -343.405087891     A.U. after   17 cycles
 SCF Done:  E(RB3LYP) =  -343.406732442     A.U. after   15 cycles
 SCF Done:  E(RB3LYP) =  -343.408407011     A.U. after   16 cycles
 SCF Done:  E(RB3LYP) =  -343.413452054     A.U. after   15 cycles
 SCF Done:  E(RB3LYP) =  -343.418008666     A.U. after   16 cycles
 SCF Done:  E(RB3LYP) =  -343.421632981     A.U. after   14 cycles
 SCF Done:  E(RB3LYP) =  -343.423375299     A.U. after   13 cycles
 SCF Done:  E(RB3LYP) =  -343.423673947     A.U. after   13 cycles
 SCF Done:  E(RB3LYP) =  -343.423679113     A.U. after   12 cycles
 Optimization completed.
    -- Stationary point found.
 ******    1 imaginary frequencies (negative Signs) ******
    1 imaginary frequencies ignored.
 Normal termination of Gaussian 16 at Wed Dec 23 22:08:11 2020.

 ---------------------------------------------------------------------
 #N Geom=AllCheck Guess=TCheck SCRF=Check GenChk RB3LYP/6-31+G(d) Freq
 ---------------------------------------------------------------------

 Structure from the checkpoint file:  "/scratch/bell/zhao922/YARP/paper-example/KHP-network/pp_0/TS-folder/Gau-105230.chk"
 ----------
 pp_21_0 TS
 ----------
 Charge =  0 Multiplicity = 1

                         Standard orientation:
 ---------------------------------------------------------------------
 Center     Atomic      Atomic             Coordinates (Angstroms)
 Number     Number       Type             X           Y           Z
 ---------------------------------------------------------------------
      1          6           0       -0.413990   -0.980281   -0.344271
      2          6           0        0.859074   -0.662183    0.275955
      3          6           0        1.788948    0.263083   -0.333488
      4          8           0       -1.153438    0.087505    0.395243
      5          8           0       -2.985693    0.585065   -0.146394
      6          8           0        2.867077    0.581764    0.160949
      7          1           0       -3.365822    0.406509    0.733626
      8          1           0       -0.504850   -0.804020   -1.418067
      9          1           0       -0.892418   -1.912235   -0.049712
     10          1           0        1.490103    0.665427   -1.327357
     11          1           0       -1.048701    0.941943   -0.066074
     12          1           0        1.093926   -1.056006    1.260023
 ---------------------------------------------------------------------

 SCF Done:  E(RB3LYP) =  -343.423679113     A.U. after    1 cycles

 The electronic state is 1-A.
 Alpha  occ. eigenvalues --  -19.28229 -19.17015 -19.16399 -10.29729 -10.29715
 Alpha  occ. eigenvalues --  -10.25569  -1.11193  -1.05772  -0.94285  -0.82334
 Alpha  occ. eigenvalues --   -0.70715  -0.60834  -0.57624  -0.52759  -0.50864
 Alpha  occ. eigenvalues --   -0.46275  -0.44701  -0.42872  -0.42253  -0.40861
 Alpha  occ. eigenvalues --   -0.38133  -0.29026  -0.28080  -0.25141
 Alpha virt. eigenvalues --   -0.16484  -0.01590  -0.01348   0.00396   0.00990
 Alpha virt. eigenvalues --    0.02977   0.05070   0.05736   0.06917   0.07845
 Alpha virt. eigenvalues --    0.08088   0.10243   0.10859   0.11864   0.14207

 Mulliken charges:
               1
     1  C   -0.499097
     2  C    0.161745
     3  C    0.004628
     4  O   -0.383587
     5  O   -0.715901
     6  O   -0.397136
     7  H    0.440129
     8  H    0.234990
     9  H    0.232069
    10  H    0.157944
    11  H    0.530695
    12  H    0.233519
 Sum of Mulliken charges =  -0.00000

 Dipole moment (field-independent basis, Debye):
    X=             -1.0153    Y=             -2.1071    Z=             -0.1581  Tot=              2.3443
 Quadrupole moment (field-independent basis, Debye-Ang):
   XX=            -55.5606   YY=            -34.5363   ZZ=            -34.4300
   XY=             -0.1670   XZ=             -6.2911   YZ=             -0.6639

  Exact polarizability: 168.497 -13.588  50.023   4.818  -2.361  44.528
 Approx polarizability: 654.261-102.533  87.300  40.989  -9.976  64.497

 ******    1 imaginary frequencies (negative Signs) ******

                      1                      2                      3
                      A                      A                      A
 Frequencies --   -218.0771                83.2092               128.5958
 Red. masses --      2.8146                 7.2018                 2.9780
 Frc consts  --      0.0789                 0.0294                 0.0290
 IR Inten    --    245.5536                10.7833                49.3002

                      4                      5                      6
                      A                      A                      A
 Frequencies --    155.6416               221.5066               267.0814
 Red. masses --      6.1688                 2.2523                 1.2551
 Frc consts  --      0.0880                 0.0651                 0.0528
 IR Inten    --      5.3625                18.3745               127.5356

                      7                      8                      9
                      A                      A                      A
 Frequencies --    313.3565               328.6285               556.4898
 Red. masses --      2.7504                 4.2743                 3.9706
 Frc consts  --      0.1591                 0.2720                 0.7245
 IR Inten    --      5.5452                 8.2019                49.5616

                     10                     11                     12
                      A                      A                      A
 Frequencies --    599.7839               722.5330               779.1118
 Red. masses --      1.5834                 1.3277                 1.7304
 Frc consts  --      0.3356                 0.4084                 0.6189
 IR Inten    --     83.8931                92.0049                75.3778

                     13                     14                     15
                      A                      A                      A
 Frequencies --    821.6621               929.0909               988.3531
 Red. masses --      1.9240                 1.4633                 1.6803
 Frc consts  --      0.7653                 0.7442                 0.9671
 IR Inten    --      1.9491                31.1330                 0.9887

                     16                     17                     18
                      A                      A                      A
 Frequencies --   1067.9626              1193.9796              1206.4638
 Red. masses --      1.1928                 1.6739                 2.1728
 Frc consts  --      0.8016                 1.4060                 1.8633
 IR Inten    --     21.5285                88.5346                25.5720

                     19                     20                     21
                      A                      A                      A
 Frequencies --   1290.0942              1328.4826              1373.5131
 Red. masses --      1.2574                 1.2046                 1.4008
 Frc consts  --      1.2330                 1.2526                 1.5570
 IR Inten    --     18.8638                 9.4197                18.6351

                     22                     23                     24
                      A                      A                      A
 Frequencies --   1458.3605              1526.4158              1699.9352
 Red. masses --      1.6020                 1.2079                 8.4166
 Frc consts  --      2.0075                 1.6582                14.3301
 IR Inten    --      7.7372                 3.0733               410.4518

                     25                     26                     27
                      A                      A                      A
 Frequencies --   2905.2515              3121.6538              3201.4501
 Red. masses --      1.0825                 1.0609                 1.1101
 Frc consts  --      5.3831                 6.0909                 6.7033
 IR Inten    --     84.7408                11.8072                 4.0657

                     28                     29                     30
                      A                      A                      A
 Frequencies --   3230.1022              3701.5343              3729.1705
 Red. masses --      1.0911                 1.0694                 1.0676
 Frc consts  --      6.7070                 8.6327                 8.7477
 IR Inten    --      0.9203                96.8819                90.1881

 - Thermochemistry -
 -------------------
 Temperature   298.150 Kelvin.  Pressure   1.00000 Atm.
 Atom     1 has atomic number  6 and mass  12.00000

 Molecular mass:    90.03169 amu.
 Principal axes and moments of inertia in atomic units:
                           1         2         3
     Eigenvalues --   172.927881337.091981418.36087
           X            0.99998  -0.00126  -0.00624
           Y            0.00107   0.99950  -0.03156
           Z            0.00628   0.03155   0.99948
 This molecule is an asymmetric top.
 Rotational symmetry number  1.
 Rotational temperatures (Kelvin)      0.50087     0.06478     0.06107
 Rotational constants (GHZ):          10.43638     1.34975     1.27241
    1 imaginary frequencies ignored.
 Zero-point vibrational energy     232849.6 (Joules/Mol)
                                   55.65239 (Kcal/Mol)
 Warning -- explicit consideration of   9 degrees of freedom as
           vibrations may cause significant error
 Vibrational temperatures:    119.72   185.02   223.93   318.70   384.27
          (Kelvin)            450.85   472.82   800.66   862.96  1039.56
                             1120.97  1182.19  1336.75  1422.02  1536.56
                             1717.87  1735.83  1856.16  1911.39  1976.18
                             2098.26  2196.17  2445.83  4180.01  4491.36
                             4606.17  4647.40  5325.68  5365.44

 Zero-point correction=                           0.088688 (Hartree/Particle)
 Thermal correction to Energy=                    0.096180
 Thermal correction to Enthalpy=                  0.097124
 Thermal correction to Gibbs Free Energy=         0.057022
 Sum of electronic and zero-point Energies=           -343.334991
 Sum of electronic and thermal Energies=              -343.327499
 Sum of electronic and thermal Enthalpies=            -343.326555
 Sum of electronic and thermal Free Energies=         -343.366657

                     E (Thermal)             CV                S
                      KCal/Mol        Cal/Mol-Kelvin    Cal/Mol-Kelvin
 Total                   60.354             24.963             84.402
 Electronic               0.000              0.000              0.000
 Translational            0.889              2.981             39.405
 Rotational               0.889              2.981             27.286
 Vibrational             58.576             19.001             17.711
 Vibration     1          0.600              1.961              3.814
 Vibration     2          0.611              1.925              2.967
 Vibration     3          0.620              1.896              2.602
 Vibration     4          0.648              1.808              1.947
 Vibration     5          0.672              1.734              1.615
 Vibration     6          0.701              1.648              1.345
 Vibration     7          0.712              1.618              1.267
 Vibration     8          0.912              1.126              0.531
 Vibration     9          0.958              1.032              0.450

 Optimization completed.
    -- Stationary point found.
 Normal termination of Gaussian 16 at Wed Dec 23 22:08:26 2020.
