 Gaussian 16, Revision B.01,
 Gaussian 16:  ES64L-G16RevB.01 20-Dec-2017

 --------------------------------------------------------------
 # B3LYP/6-31+G* OPT=(TS, CALCALL, NOEIGEN, maxcycles=100) Freq
 --------------------------------------------------------------

 ----------
 pp_25_0 TS
 ----------
 Symbolic Z-matrix:
 Charge =  0 Multiplicity = 1

 SCF Done:  E(RB3LYP) =  -343.333335721     A.U. after   14 cycles
 SCF Done:  E(RB3LYP) =  -343.350627384     A.U. after   13 cycles
 SCF Done:  E(RB3LYP) =  -343.365017402     A.U. after   13 cycles
 SCF Done:  E(RB3LYP) =  -343.377632711     A.U. after   12 cycles
 SCF Done:  E(RB3LYP) =  -343.387275112     A.U. after   12 cycles
 SCF Done:  E(RB3LYP) =  -343.392983326     A.U. after   12 cycles
 SCF Done:  E(RB3LYP) =  -343.394655962     A.U. after   11 cycles
 SCF Done:  E(RB3LYP) =  -343.394740682     A.U. after   10 cycles
 SCF Done:  E(RB3LYP) =  -343.394741186     A.U. after    8 cycles
 Optimization completed.
    -- Stationary point found.
 ******    1 imaginary frequencies (negative Signs) ******
    1 imaginary frequencies ignored.
 Normal termination of Gaussian 16 at Wed Dec 23 23:10:20 2020.

 ---------------------------------------------------------------------
 #N Geom=AllCheck Guess=TCheck SCRF=Check GenChk RB3LYP/6-31+G(d) Freq
 ---------------------------------------------------------------------

 Structure from the checkpoint file:  "/scratch/bell/zhao922/YARP/paper-example/KHP-network/pp_0/TS-folder/Gau-20918.chk"
 ----------
 pp_25_0 TS
 ----------
 Charge =  0 Multiplicity = 1

                         Standard orientation:
 ---------------------------------------------------------------------
 Center     Atomic      Atomic             Coordinates (Angstroms)
 Number     Number       Type             X           Y           Z
 ---------------------------------------------------------------------
      1          6           0        1.247624    0.712566   -0.367759
      2          6           0       -0.024664    1.198094    0.342758
      3          6           0       -1.023100    0.073680    0.183761
      4          8           0        1.481897   -0.610318    0.096866
      5          8           0        0.221046   -1.285018   -0.111322
      6          8           0       -2.042449   -0.047787   -0.401492
      7          1           0       -0.419525   -1.192684    1.087448
      8          1           0        1.120341    0.721312   -1.457943
      9          1           0        2.131250    1.292841   -0.088691
     10          1           0       -1.028266   -0.660524    1.555078
     11          1           0       -0.460081    2.088937   -0.120246
     12          1           0        0.173165    1.389067    1.399376
 ---------------------------------------------------------------------

 SCF Done:  E(RB3LYP) =  -343.394741186     A.U. after    1 cycles

 The electronic state is 1-A.
 Alpha  occ. eigenvalues --  -19.23049 -19.21652 -19.20398 -10.36710 -10.27488
 Alpha  occ. eigenvalues --  -10.24961  -1.13766  -1.10996  -0.90522  -0.82400
 Alpha  occ. eigenvalues --   -0.66832  -0.62174  -0.55906  -0.51826  -0.49144
 Alpha  occ. eigenvalues --   -0.48119  -0.46529  -0.46189  -0.42360  -0.38957
 Alpha  occ. eigenvalues --   -0.38573  -0.33143  -0.30303  -0.26046
 Alpha virt. eigenvalues --   -0.05505  -0.01759   0.00170   0.00634   0.01898
 Alpha virt. eigenvalues --    0.03185   0.04635   0.05729   0.06447   0.07085
 Alpha virt. eigenvalues --    0.07902   0.09076   0.11434   0.12224   0.13448

 Mulliken charges:
               1
     1  C   -0.227036
     2  C   -0.414675
     3  C    0.182802
     4  O   -0.224769
     5  O   -0.123832
     6  O   -0.318874
     7  H    0.173651
     8  H    0.214081
     9  H    0.214835
    10  H    0.029042
    11  H    0.248005
    12  H    0.246769
 Sum of Mulliken charges =   0.00000

 Dipole moment (field-independent basis, Debye):
    X=              1.1818    Y=              3.7293    Z=              1.0460  Tot=              4.0495
 Quadrupole moment (field-independent basis, Debye-Ang):
   XX=            -41.8910   YY=            -35.9035   ZZ=            -36.0602
   XY=              2.9788   XZ=             -2.2810   YZ=             -0.9355

  Exact polarizability:  61.711  -0.841  51.723  -0.704  -3.302  49.953
 Approx polarizability:  97.305  -9.845  79.139   5.531  -4.985  75.853

 ******    1 imaginary frequencies (negative Signs) ******

                      1                      2                      3
                      A                      A                      A
 Frequencies --  -1638.6970               123.5533               274.4881
 Red. masses --      1.1733                 3.8156                 4.3838
 Frc consts  --      1.8563                 0.0343                 0.1946
 IR Inten    --    569.7591                 2.4441                47.2042

                      4                      5                      6
                      A                      A                      A
 Frequencies --    328.7614               460.1229               498.0956
 Red. masses --      4.5241                 3.7297                 4.3270
 Frc consts  --      0.2881                 0.4652                 0.6325
 IR Inten    --     26.4538                15.2319               131.4391

                      7                      8                      9
                      A                      A                      A
 Frequencies --    579.3677               710.4438               749.0280
 Red. masses --      3.2571                 2.5759                 1.1376
 Frc consts  --      0.6442                 0.7660                 0.3760
 IR Inten    --     21.2376                92.7979               258.5782

                     10                     11                     12
                      A                      A                      A
 Frequencies --    798.5571               890.2333               902.7979
 Red. masses --      1.5720                 4.0894                 2.1805
 Frc consts  --      0.5906                 1.9095                 1.0471
 IR Inten    --      7.9302                11.4986                 5.3769

                     13                     14                     15
                      A                      A                      A
 Frequencies --    932.1040              1009.1568              1035.1497
 Red. masses --      2.2792                 2.5044                 5.0016
 Frc consts  --      1.1667                 1.5027                 3.1577
 IR Inten    --     18.3097                30.5543                58.5210

                     16                     17                     18
                      A                      A                      A
 Frequencies --   1104.3729              1222.5393              1256.1408
 Red. masses --      1.7720                 1.2871                 1.3052
 Frc consts  --      1.2733                 1.1334                 1.2134
 IR Inten    --     22.9362                 1.9086                 8.1621

                     19                     20                     21
                      A                      A                      A
 Frequencies --   1323.3384              1337.6213              1364.6167
 Red. masses --      1.3353                 1.0491                 1.0377
 Frc consts  --      1.3777                 1.1060                 1.1385
 IR Inten    --      8.4942                70.7575                 9.9524

                     22                     23                     24
                      A                      A                      A
 Frequencies --   1385.4340              1487.2823              1511.9678
 Red. masses --      1.2465                 1.0873                 1.0909
 Frc consts  --      1.4097                 1.4170                 1.4693
 IR Inten    --     10.1512                 7.7315                 1.7282

                     25                     26                     27
                      A                      A                      A
 Frequencies --   1945.1102              2115.3740              3054.8027
 Red. masses --     10.7004                 1.0414                 1.0648
 Frc consts  --     23.8528                 2.7456                 5.8545
 IR Inten    --    409.8514               294.8136                37.1448

                     28                     29                     30
                      A                      A                      A
 Frequencies --   3098.2328              3137.2335              3158.8409
 Red. masses --      1.0597                 1.1013                 1.1071
 Frc consts  --      5.9934                 6.3861                 6.5089
 IR Inten    --      2.3171                 7.1580                 4.4691

 - Thermochemistry -
 -------------------
 Temperature   298.150 Kelvin.  Pressure   1.00000 Atm.
 Atom     1 has atomic number  6 and mass  12.00000

 Molecular mass:    90.03169 amu.
 Principal axes and moments of inertia in atomic units:
                           1         2         3
     Eigenvalues --   285.08496 554.95076 740.67935
           X            0.99824   0.05197  -0.02863
           Y           -0.05295   0.99800  -0.03457
           Z            0.02678   0.03603   0.99899
 This molecule is an asymmetric top.
 Rotational symmetry number  1.
 Rotational temperatures (Kelvin)      0.30382     0.15607     0.11694
 Rotational constants (GHZ):           6.33054     3.25207     2.43660
    1 imaginary frequencies ignored.
 Zero-point vibrational energy     226062.9 (Joules/Mol)
                                   54.03033 (Kcal/Mol)
 Warning -- explicit consideration of   6 degrees of freedom as
           vibrations may cause significant error
 Vibrational temperatures:    177.77   394.93   473.01   662.01   716.65
          (Kelvin)            833.58  1022.17  1077.68  1148.95  1280.85
                             1298.92  1341.09  1451.95  1489.35  1588.95
                             1758.96  1807.31  1903.99  1924.54  1963.38
                             1993.33  2139.87  2175.38  2798.58  3043.55
                             4395.18  4457.67  4513.78  4544.87

 Zero-point correction=                           0.086103 (Hartree/Particle)
 Thermal correction to Energy=                    0.091724
 Thermal correction to Enthalpy=                  0.092668
 Thermal correction to Gibbs Free Energy=         0.057014
 Sum of electronic and zero-point Energies=           -343.308638
 Sum of electronic and thermal Energies=              -343.303017
 Sum of electronic and thermal Enthalpies=            -343.302073
 Sum of electronic and thermal Free Energies=         -343.337727

                     E (Thermal)             CV                S
                      KCal/Mol        Cal/Mol-Kelvin    Cal/Mol-Kelvin
 Total                   57.558             20.583             75.040
 Electronic               0.000              0.000              0.000
 Translational            0.889              2.981             39.405
 Rotational               0.889              2.981             26.263
 Vibrational             55.780             14.621              9.372
 Vibration     1          0.610              1.929              3.044
 Vibration     2          0.677              1.720              1.568
 Vibration     3          0.712              1.618              1.266
 Vibration     4          0.818              1.338              0.766
 Vibration     5          0.854              1.254              0.663
 Vibration     6          0.936              1.076              0.487

 Optimization completed.
    -- Stationary point found.
 Normal termination of Gaussian 16 at Wed Dec 23 23:10:36 2020.
