 Gaussian 16, Revision B.01,
 Gaussian 16:  ES64L-G16RevB.01 20-Dec-2017

 --------------------------------------------------------------
 # B3LYP/6-31+G* OPT=(TS, CALCALL, NOEIGEN, maxcycles=100) Freq
 --------------------------------------------------------------

 ----------
 pp_21_1 TS
 ----------
 Symbolic Z-matrix:
 Charge =  0 Multiplicity = 1

 SCF Done:  E(RB3LYP) =  -343.273222724     A.U. after   20 cycles
 SCF Done:  E(RB3LYP) =  -343.303515698     A.U. after   16 cycles
 SCF Done:  E(RB3LYP) =  -343.326267995     A.U. after   15 cycles
 SCF Done:  E(RB3LYP) =  -343.344667124     A.U. after   16 cycles
 SCF Done:  E(RB3LYP) =  -343.353558583     A.U. after   16 cycles
 SCF Done:  E(RB3LYP) =  -343.361734431     A.U. after   15 cycles
 SCF Done:  E(RB3LYP) =  -343.377950273     A.U. after   16 cycles
 SCF Done:  E(RB3LYP) =  -343.385321928     A.U. after   15 cycles
 SCF Done:  E(RB3LYP) =  -343.392843516     A.U. after   15 cycles
 SCF Done:  E(RB3LYP) =  -343.397063012     A.U. after   15 cycles
 SCF Done:  E(RB3LYP) =  -343.407046657     A.U. after   15 cycles
 SCF Done:  E(RB3LYP) =  -343.407601952     A.U. after   15 cycles
 SCF Done:  E(RB3LYP) =  -343.409526278     A.U. after   16 cycles
 SCF Done:  E(RB3LYP) =  -343.415286297     A.U. after   15 cycles
 SCF Done:  E(RB3LYP) =  -343.419005942     A.U. after   16 cycles
 SCF Done:  E(RB3LYP) =  -343.422330308     A.U. after   14 cycles
 SCF Done:  E(RB3LYP) =  -343.423541885     A.U. after   13 cycles
 SCF Done:  E(RB3LYP) =  -343.423678276     A.U. after   13 cycles
 SCF Done:  E(RB3LYP) =  -343.423679114     A.U. after   11 cycles
 Optimization completed.
    -- Stationary point found.
 ******    1 imaginary frequencies (negative Signs) ******
    1 imaginary frequencies ignored.
 Normal termination of Gaussian 16 at Wed Dec 23 22:08:28 2020.

 ---------------------------------------------------------------------
 #N Geom=AllCheck Guess=TCheck SCRF=Check GenChk RB3LYP/6-31+G(d) Freq
 ---------------------------------------------------------------------

 Structure from the checkpoint file:  "/scratch/bell/zhao922/YARP/paper-example/KHP-network/pp_0/TS-folder/Gau-105494.chk"
 ----------
 pp_21_1 TS
 ----------
 Charge =  0 Multiplicity = 1

                         Standard orientation:
 ---------------------------------------------------------------------
 Center     Atomic      Atomic             Coordinates (Angstroms)
 Number     Number       Type             X           Y           Z
 ---------------------------------------------------------------------
      1          6           0       -0.413961   -0.980268   -0.344248
      2          6           0        0.859083   -0.662138    0.275994
      3          6           0        1.788999    0.263056   -0.333494
      4          8           0       -1.153478    0.087549    0.395182
      5          8           0       -2.985772    0.585018   -0.146380
      6          8           0        2.867120    0.581747    0.160955
      7          1           0       -3.365825    0.406441    0.733668
      8          1           0       -0.504769   -0.804047   -1.418055
      9          1           0       -0.892390   -1.912219   -0.049679
     10          1           0        1.490199    0.665328   -1.327406
     11          1           0        1.093900   -1.055887    1.260101
     12          1           0       -1.048799    0.941962   -0.066199
 ---------------------------------------------------------------------

 SCF Done:  E(RB3LYP) =  -343.423679114     A.U. after    1 cycles

 The electronic state is 1-A.
 Alpha  occ. eigenvalues --  -19.28229 -19.17015 -19.16399 -10.29728 -10.29715
 Alpha  occ. eigenvalues --  -10.25569  -1.11192  -1.05772  -0.94285  -0.82334
 Alpha  occ. eigenvalues --   -0.70714  -0.60833  -0.57624  -0.52759  -0.50864
 Alpha  occ. eigenvalues --   -0.46275  -0.44701  -0.42872  -0.42253  -0.40861
 Alpha  occ. eigenvalues --   -0.38133  -0.29026  -0.28080  -0.25141
 Alpha virt. eigenvalues --   -0.16484  -0.01591  -0.01348   0.00396   0.00990
 Alpha virt. eigenvalues --    0.02977   0.05070   0.05736   0.06917   0.07845
 Alpha virt. eigenvalues --    0.08088   0.10243   0.10859   0.11864   0.14206

 Mulliken charges:
               1
     1  C   -0.499130
     2  C    0.161769
     3  C    0.004633
     4  O   -0.383593
     5  O   -0.715881
     6  O   -0.397135
     7  H    0.440130
     8  H    0.234986
     9  H    0.232070
    10  H    0.157943
    11  H    0.233518
    12  H    0.530691
 Sum of Mulliken charges =  -0.00000

 Dipole moment (field-independent basis, Debye):
    X=             -1.0153    Y=             -2.1070    Z=             -0.1582  Tot=              2.3442
 Quadrupole moment (field-independent basis, Debye-Ang):
   XX=            -55.5615   YY=            -34.5364   ZZ=            -34.4296
   XY=             -0.1672   XZ=             -6.2912   YZ=             -0.6643

  Exact polarizability: 168.502 -13.587  50.021   4.818  -2.361  44.528
 Approx polarizability: 654.293-102.529  87.295  40.993  -9.976  64.498

 ******    1 imaginary frequencies (negative Signs) ******

                      1                      2                      3
                      A                      A                      A
 Frequencies --   -218.0666                83.2061               128.5994
 Red. masses --      2.8149                 7.2018                 2.9780
 Frc consts  --      0.0789                 0.0294                 0.0290
 IR Inten    --    245.5565                10.7813                49.3056

                      4                      5                      6
                      A                      A                      A
 Frequencies --    155.6442               221.5058               267.0834
 Red. masses --      6.1691                 2.2522                 1.2552
 Frc consts  --      0.0881                 0.0651                 0.0528
 IR Inten    --      5.3615                18.3784               127.5383

                      7                      8                      9
                      A                      A                      A
 Frequencies --    313.3593               328.6187               556.4930
 Red. masses --      2.7507                 4.2734                 3.9710
 Frc consts  --      0.1591                 0.2719                 0.7245
 IR Inten    --      5.5422                 8.2022                49.5530

                     10                     11                     12
                      A                      A                      A
 Frequencies --    599.7840               722.5361               779.1036
 Red. masses --      1.5832                 1.3281                 1.7305
 Frc consts  --      0.3356                 0.4085                 0.6189
 IR Inten    --     83.9038                91.9710                75.4058

                     13                     14                     15
                      A                      A                      A
 Frequencies --    821.6442               929.0909               988.3510
 Red. masses --      1.9229                 1.4633                 1.6803
 Frc consts  --      0.7648                 0.7442                 0.9671
 IR Inten    --      1.9445                31.1348                 0.9881

                     16                     17                     18
                      A                      A                      A
 Frequencies --   1067.9531              1193.9813              1206.4712
 Red. masses --      1.1928                 1.6740                 2.1728
 Frc consts  --      0.8015                 1.4060                 1.8634
 IR Inten    --     21.5297                88.5597                25.5544

                     19                     20                     21
                      A                      A                      A
 Frequencies --   1290.0829              1328.4777              1373.5138
 Red. masses --      1.2574                 1.2046                 1.4007
 Frc consts  --      1.2330                 1.2526                 1.5569
 IR Inten    --     18.8596                 9.4194                18.6344

                     22                     23                     24
                      A                      A                      A
 Frequencies --   1458.3599              1526.4156              1699.9312
 Red. masses --      1.6020                 1.2079                 8.4166
 Frc consts  --      2.0075                 1.6582                14.3300
 IR Inten    --      7.7381                 3.0736               410.4462

                     25                     26                     27
                      A                      A                      A
 Frequencies --   2905.2623              3121.6444              3201.4413
 Red. masses --      1.0825                 1.0609                 1.1101
 Frc consts  --      5.3831                 6.0909                 6.7033
 IR Inten    --     84.7466                11.8084                 4.0664

                     28                     29                     30
                      A                      A                      A
 Frequencies --   3230.0975              3701.5024              3729.1695
 Red. masses --      1.0911                 1.0694                 1.0676
 Frc consts  --      6.7070                 8.6325                 8.7477
 IR Inten    --      0.9205                96.8889                90.1882

 - Thermochemistry -
 -------------------
 Temperature   298.150 Kelvin.  Pressure   1.00000 Atm.
 Atom     1 has atomic number  6 and mass  12.00000

 Molecular mass:    90.03169 amu.
 Principal axes and moments of inertia in atomic units:
                           1         2         3
     Eigenvalues --   172.917221337.145531418.40603
           X            0.99998  -0.00126  -0.00624
           Y            0.00107   0.99950  -0.03156
           Z            0.00628   0.03156   0.99948
 This molecule is an asymmetric top.
 Rotational symmetry number  1.
 Rotational temperatures (Kelvin)      0.50090     0.06478     0.06106
 Rotational constants (GHZ):          10.43702     1.34970     1.27237
    1 imaginary frequencies ignored.
 Zero-point vibrational energy     232849.1 (Joules/Mol)
                                   55.65226 (Kcal/Mol)
 Warning -- explicit consideration of   9 degrees of freedom as
           vibrations may cause significant error
 Vibrational temperatures:    119.71   185.03   223.94   318.70   384.27
          (Kelvin)            450.85   472.81   800.67   862.96  1039.57
                             1120.96  1182.16  1336.75  1422.02  1536.55
                             1717.87  1735.84  1856.14  1911.38  1976.18
                             2098.25  2196.17  2445.82  4180.02  4491.35
                             4606.16  4647.39  5325.64  5365.44

 Zero-point correction=                           0.088688 (Hartree/Particle)
 Thermal correction to Energy=                    0.096180
 Thermal correction to Enthalpy=                  0.097124
 Thermal correction to Gibbs Free Energy=         0.057022
 Sum of electronic and zero-point Energies=           -343.334992
 Sum of electronic and thermal Energies=              -343.327499
 Sum of electronic and thermal Enthalpies=            -343.326555
 Sum of electronic and thermal Free Energies=         -343.366657

                     E (Thermal)             CV                S
                      KCal/Mol        Cal/Mol-Kelvin    Cal/Mol-Kelvin
 Total                   60.354             24.963             84.402
 Electronic               0.000              0.000              0.000
 Translational            0.889              2.981             39.405
 Rotational               0.889              2.981             27.286
 Vibrational             58.576             19.001             17.711
 Vibration     1          0.600              1.961              3.814
 Vibration     2          0.611              1.925              2.967
 Vibration     3          0.620              1.896              2.602
 Vibration     4          0.648              1.808              1.947
 Vibration     5          0.672              1.734              1.615
 Vibration     6          0.701              1.648              1.345
 Vibration     7          0.712              1.618              1.267
 Vibration     8          0.912              1.125              0.531
 Vibration     9          0.958              1.032              0.450

 Optimization completed.
    -- Stationary point found.
 Normal termination of Gaussian 16 at Wed Dec 23 22:08:43 2020.
