 Gaussian 16, Revision B.01,
 Gaussian 16:  ES64L-G16RevB.01 20-Dec-2017

 --------------------------------------------------------------
 # B3LYP/6-31+G* OPT=(TS, CALCALL, NOEIGEN, maxcycles=100) Freq
 --------------------------------------------------------------

 ----------
 pp_22_0 TS
 ----------
 Symbolic Z-matrix:
 Charge =  0 Multiplicity = 1

 SCF Done:  E(RB3LYP) =  -343.371616845     A.U. after   17 cycles
 SCF Done:  E(RB3LYP) =  -343.384217077     A.U. after   17 cycles
 SCF Done:  E(RB3LYP) =  -343.403888836     A.U. after   17 cycles
 SCF Done:  E(RB3LYP) =  -343.421293105     A.U. after   15 cycles
 SCF Done:  E(RB3LYP) =  -343.430265852     A.U. after   15 cycles
 SCF Done:  E(RB3LYP) =  -343.434122511     A.U. after   15 cycles
 SCF Done:  E(RB3LYP) =  -343.434762782     A.U. after   15 cycles
 SCF Done:  E(RB3LYP) =  -343.437175380     A.U. after   14 cycles
 SCF Done:  E(RB3LYP) =  -343.437191642     A.U. after   13 cycles
 SCF Done:  E(RB3LYP) =  -343.437229163     A.U. after   13 cycles
 SCF Done:  E(RB3LYP) =  -343.437229424     A.U. after   11 cycles
 Optimization completed.
    -- Stationary point found.
 ******    1 imaginary frequencies (negative Signs) ******
    1 imaginary frequencies ignored.
 Normal termination of Gaussian 16 at Wed Dec 23 22:05:05 2020.

 ---------------------------------------------------------------------
 #N Geom=AllCheck Guess=TCheck SCRF=Check GenChk RB3LYP/6-31+G(d) Freq
 ---------------------------------------------------------------------

 Structure from the checkpoint file:  "/scratch/bell/zhao922/YARP/paper-example/KHP-network/pp_0/TS-folder/Gau-105762.chk"
 ----------
 pp_22_0 TS
 ----------
 Charge =  0 Multiplicity = 1

                         Standard orientation:
 ---------------------------------------------------------------------
 Center     Atomic      Atomic             Coordinates (Angstroms)
 Number     Number       Type             X           Y           Z
 ---------------------------------------------------------------------
      1          6           0       -1.271866   -0.576263   -0.374004
      2          6           0       -0.182850   -1.072778    0.622220
      3          6           0        1.019290   -0.111531    0.271574
      4          8           0       -1.420211    0.772322   -0.282714
      5          8           0        0.290992    1.206357    0.497973
      6          8           0        1.638118   -0.246267   -0.813576
      7          1           0        0.528083    1.779345   -0.262590
      8          1           0       -2.205711   -1.044917   -0.004022
      9          1           0       -1.005537   -0.913398   -1.386207
     10          1           0        1.632451   -0.076569    1.216619
     11          1           0        0.095755   -2.114982    0.446693
     12          1           0       -0.503680   -0.925343    1.657296
 ---------------------------------------------------------------------

 SCF Done:  E(RB3LYP) =  -343.437229424     A.U. after    1 cycles

 The electronic state is 1-A.
 Alpha  occ. eigenvalues --  -19.25387 -19.21437 -19.12910 -10.31788 -10.26833
 Alpha  occ. eigenvalues --  -10.24341  -1.10498  -1.02605  -1.00110  -0.79591
 Alpha  occ. eigenvalues --   -0.67288  -0.61691  -0.54327  -0.52642  -0.48285
 Alpha  occ. eigenvalues --   -0.46376  -0.45555  -0.43183  -0.41464  -0.40172
 Alpha  occ. eigenvalues --   -0.37171  -0.29675  -0.28044  -0.25541
 Alpha virt. eigenvalues --   -0.17366  -0.00285   0.01442   0.01643   0.03731
 Alpha virt. eigenvalues --    0.04351   0.05508   0.06711   0.07217   0.08998
 Alpha virt. eigenvalues --    0.09845   0.11762   0.13135   0.14378   0.15562

 Mulliken charges:
               1
     1  C   -0.235503
     2  C   -0.326657
     3  C    0.069771
     4  O   -0.234960
     5  O   -0.479033
     6  O   -0.468992
     7  H    0.544734
     8  H    0.219249
     9  H    0.216234
    10  H    0.227669
    11  H    0.238606
    12  H    0.228882
 Sum of Mulliken charges =  -0.00000

 Dipole moment (field-independent basis, Debye):
    X=             -1.3004    Y=             -1.2263    Z=              2.0518  Tot=              2.7212
 Quadrupole moment (field-independent basis, Debye-Ang):
   XX=            -40.4772   YY=            -32.5993   ZZ=            -37.3020
   XY=              5.5969   XZ=              4.3397   YZ=             -2.7357

  Exact polarizability:  83.408  -2.540  56.607   1.924   0.302  49.294
 Approx polarizability: 233.093 -50.103 111.569   0.720   7.404  78.163

 ******    1 imaginary frequencies (negative Signs) ******

                      1                      2                      3
                      A                      A                      A
 Frequencies --   -390.2771               147.9037               255.8015
 Red. masses --      7.3141                 8.0370                 2.6577
 Frc consts  --      0.6564                 0.1036                 0.1025
 IR Inten    --     89.2625                10.4236                 4.3699

                      4                      5                      6
                      A                      A                      A
 Frequencies --    394.7854               425.4682               552.4885
 Red. masses --      2.6363                 3.8527                 5.4817
 Frc consts  --      0.2421                 0.4109                 0.9858
 IR Inten    --      1.1818                23.7079                31.9028

                      7                      8                      9
                      A                      A                      A
 Frequencies --    618.1642               708.9538               723.2314
 Red. masses --      4.8100                 2.4665                 2.0889
 Frc consts  --      1.0829                 0.7304                 0.6438
 IR Inten    --     76.5692                 7.3539                 7.3128

                     10                     11                     12
                      A                      A                      A
 Frequencies --    810.6751               856.5973               900.7648
 Red. masses --      1.8424                 2.4843                 1.6633
 Frc consts  --      0.7134                 1.0740                 0.7952
 IR Inten    --     67.4427                 7.0926                14.8090

                     13                     14                     15
                      A                      A                      A
 Frequencies --    985.5047              1010.9432              1083.8813
 Red. masses --      2.5527                 1.1990                 1.4129
 Frc consts  --      1.4607                 0.7220                 0.9780
 IR Inten    --     25.9010                 3.1880                 0.5469

                     16                     17                     18
                      A                      A                      A
 Frequencies --   1095.5697              1143.5060              1188.4476
 Red. masses --      1.4472                 1.2027                 1.1516
 Frc consts  --      1.0235                 0.9266                 0.9584
 IR Inten    --     16.2315                15.2487                 2.1312

                     19                     20                     21
                      A                      A                      A
 Frequencies --   1214.1288              1283.3756              1336.9448
 Red. masses --      1.6649                 1.3402                 1.1232
 Frc consts  --      1.4460                 1.3005                 1.1829
 IR Inten    --     14.9304                41.5873                 1.8332

                     22                     23                     24
                      A                      A                      A
 Frequencies --   1477.5001              1495.9926              1509.6394
 Red. masses --      1.4213                 1.1517                 2.6356
 Frc consts  --      1.8280                 1.5186                 3.5389
 IR Inten    --     94.1936                19.5341               118.4844

                     25                     26                     27
                      A                      A                      A
 Frequencies --   2743.2595              2935.9630              3045.1696
 Red. masses --      1.0690                 1.0587                 1.0962
 Frc consts  --      4.7398                 5.3768                 5.9892
 IR Inten    --      7.4428                 2.8063                35.5226

                     28                     29                     30
                      A                      A                      A
 Frequencies --   3099.2737              3168.3612              3643.6273
 Red. masses --      1.0585                 1.1094                 1.0667
 Frc consts  --      5.9906                 6.5618                 8.3441
 IR Inten    --     19.6881                 6.7497               129.6331

 - Thermochemistry -
 -------------------
 Temperature   298.150 Kelvin.  Pressure   1.00000 Atm.
 Atom     1 has atomic number  6 and mass  12.00000

 Molecular mass:    90.03169 amu.
 Principal axes and moments of inertia in atomic units:
                           1         2         3
     Eigenvalues --   325.67242 527.36495 643.59681
           X            0.99659   0.07874   0.02460
           Y           -0.07739   0.99565  -0.05190
           Z           -0.02858   0.04982   0.99835
 This molecule is an asymmetric top.
 Rotational symmetry number  1.
 Rotational temperatures (Kelvin)      0.26595     0.16424     0.13458
 Rotational constants (GHZ):           5.54158     3.42219     2.80415
    1 imaginary frequencies ignored.
 Zero-point vibrational energy     238391.4 (Joules/Mol)
                                   56.97690 (Kcal/Mol)
 Warning -- explicit consideration of   6 degrees of freedom as
           vibrations may cause significant error
 Vibrational temperatures:    212.80   368.04   568.01   612.15   794.91
          (Kelvin)            889.40  1020.03  1040.57  1166.38  1232.45
                             1296.00  1417.92  1454.52  1559.46  1576.28
                             1645.25  1709.91  1746.86  1846.49  1923.57
                             2125.79  2152.40  2172.03  3946.94  4224.20
                             4381.32  4459.16  4558.57  5242.37

 Zero-point correction=                           0.090798 (Hartree/Particle)
 Thermal correction to Energy=                    0.096317
 Thermal correction to Enthalpy=                  0.097262
 Thermal correction to Gibbs Free Energy=         0.061895
 Sum of electronic and zero-point Energies=           -343.346431
 Sum of electronic and thermal Energies=              -343.340912
 Sum of electronic and thermal Enthalpies=            -343.339968
 Sum of electronic and thermal Free Energies=         -343.375334

                     E (Thermal)             CV                S
                      KCal/Mol        Cal/Mol-Kelvin    Cal/Mol-Kelvin
 Total                   60.440             20.443             74.435
 Electronic               0.000              0.000              0.000
 Translational            0.889              2.981             39.405
 Rotational               0.889              2.981             26.205
 Vibrational             58.663             14.481              8.825
 Vibration     1          0.617              1.905              2.699
 Vibration     2          0.666              1.753              1.690
 Vibration     3          0.762              1.481              0.982
 Vibration     4          0.787              1.415              0.874
 Vibration     5          0.908              1.134              0.539
 Vibration     6          0.978              0.994              0.419

 Optimization completed.
    -- Stationary point found.
 Normal termination of Gaussian 16 at Wed Dec 23 22:05:22 2020.
