 Gaussian 16, Revision B.01,
 Gaussian 16:  ES64L-G16RevB.01 20-Dec-2017

 --------------------------------------------------------------
 # B3LYP/6-31+G* OPT=(TS, CALCALL, NOEIGEN, maxcycles=100) Freq
 --------------------------------------------------------------

 ---------
 pp_3_0 TS
 ---------
 Symbolic Z-matrix:
 Charge =  0 Multiplicity = 1

 SCF Done:  E(RB3LYP) =  -343.298393275     A.U. after   15 cycles
 SCF Done:  E(RB3LYP) =  -343.322023009     A.U. after   14 cycles
 SCF Done:  E(RB3LYP) =  -343.339028199     A.U. after   15 cycles
 SCF Done:  E(RB3LYP) =  -343.351949726     A.U. after   15 cycles
 SCF Done:  E(RB3LYP) =  -343.360549728     A.U. after   14 cycles
 SCF Done:  E(RB3LYP) =  -343.367440453     A.U. after   14 cycles
 SCF Done:  E(RB3LYP) =  -343.369754122     A.U. after   14 cycles
 SCF Done:  E(RB3LYP) =  -343.370152055     A.U. after   13 cycles
 SCF Done:  E(RB3LYP) =  -343.370166071     A.U. after   12 cycles
 SCF Done:  E(RB3LYP) =  -343.370166131     A.U. after   10 cycles
 Optimization completed.
    -- Stationary point found.
 ******    1 imaginary frequencies (negative Signs) ******
    1 imaginary frequencies ignored.
 Normal termination of Gaussian 16 at Wed Dec 23 23:10:42 2020.

 ---------------------------------------------------------------------
 #N Geom=AllCheck Guess=TCheck SCRF=Check GenChk RB3LYP/6-31+G(d) Freq
 ---------------------------------------------------------------------

 Structure from the checkpoint file:  "/scratch/bell/zhao922/YARP/paper-example/KHP-network/pp_0/TS-folder/Gau-21740.chk"
 ---------
 pp_3_0 TS
 ---------
 Charge =  0 Multiplicity = 1

                         Standard orientation:
 ---------------------------------------------------------------------
 Center     Atomic      Atomic             Coordinates (Angstroms)
 Number     Number       Type             X           Y           Z
 ---------------------------------------------------------------------
      1          6           0       -0.580062   -0.105982   -0.855835
      2          6           0        1.604339    1.248348    0.238514
      3          6           0        1.405683   -0.128371    0.285271
      4          8           0       -1.691894    0.448391   -0.379602
      5          8           0       -2.237770   -0.430350    0.644979
      6          8           0        2.086876   -1.120078   -0.001014
      7          1           0       -2.880927    0.181702    1.052259
      8          1           0       -0.192452    0.487589   -1.673460
      9          1           0       -0.521249   -1.191090   -0.902100
     10          1           0        0.353649   -0.321343    0.733049
     11          1           0        2.598483    1.669128    0.104481
     12          1           0        0.805027    1.906344    0.563171
 ---------------------------------------------------------------------

 SCF Done:  E(RB3LYP) =  -343.370166131     A.U. after    1 cycles

 The electronic state is 1-A.
 Alpha  occ. eigenvalues --  -19.31466 -19.28143 -19.11053 -10.32554 -10.25620
 Alpha  occ. eigenvalues --  -10.19441  -1.21291  -1.01187  -1.00286  -0.74896
 Alpha  occ. eigenvalues --   -0.70864  -0.61958  -0.56729  -0.55265  -0.50549
 Alpha  occ. eigenvalues --   -0.48881  -0.46575  -0.42670  -0.41530  -0.38077
 Alpha  occ. eigenvalues --   -0.37448  -0.34741  -0.24127  -0.21161
 Alpha virt. eigenvalues --   -0.10888  -0.06531  -0.01499   0.02019   0.02854
 Alpha virt. eigenvalues --    0.03522   0.04136   0.06219   0.07156   0.08089
 Alpha virt. eigenvalues --    0.09298   0.09667   0.11230   0.12359   0.12707

 Mulliken charges:
               1
     1  C   -0.374535
     2  C   -0.399679
     3  C    0.143329
     4  O   -0.002672
     5  O   -0.469285
     6  O   -0.505746
     7  H    0.489057
     8  H    0.269692
     9  H    0.282196
    10  H    0.182042
    11  H    0.204847
    12  H    0.180754
 Sum of Mulliken charges =  -0.00000

 Dipole moment (field-independent basis, Debye):
    X=             -5.5210    Y=              2.8120    Z=             -0.3001  Tot=              6.2031
 Quadrupole moment (field-independent basis, Debye-Ang):
   XX=            -38.5414   YY=            -39.5587   ZZ=            -34.1678
   XY=              4.2123   XZ=             -3.3394   YZ=              1.0357

  Exact polarizability: 102.053  10.417  66.689   6.374   4.031  49.136
 Approx polarizability: 194.028  21.236 121.222  28.171   6.731  76.767

 ******    1 imaginary frequencies (negative Signs) ******

                      1                      2                      3
                      A                      A                      A
 Frequencies --   -648.3979                52.5495                96.1479
 Red. masses --      1.3553                 3.8052                 2.3299
 Frc consts  --      0.3357                 0.0062                 0.0127
 IR Inten    --    107.2628                 3.2617                43.7396

                      4                      5                      6
                      A                      A                      A
 Frequencies --    106.6461               130.0826               201.3248
 Red. masses --      2.6472                 2.2593                 4.9617
 Frc consts  --      0.0177                 0.0225                 0.1185
 IR Inten    --     11.6229                82.4034                 5.5369

                      7                      8                      9
                      A                      A                      A
 Frequencies --    368.4173               472.0296               545.9727
 Red. masses --      3.2609                 3.0425                 2.5607
 Frc consts  --      0.2608                 0.3994                 0.4497
 IR Inten    --     69.5516                17.1522                 5.9079

                     10                     11                     12
                      A                      A                      A
 Frequencies --    629.1522               687.9829               791.8902
 Red. masses --      2.4521                 1.1720                 1.5108
 Frc consts  --      0.5719                 0.3268                 0.5582
 IR Inten    --     32.7483                16.7520                72.2311

                     13                     14                     15
                      A                      A                      A
 Frequencies --    842.8186               860.9462              1022.3612
 Red. masses --      1.3453                 3.9532                 1.4380
 Frc consts  --      0.5630                 1.7264                 0.8855
 IR Inten    --     58.7541                44.8912               107.7827

                     16                     17                     18
                      A                      A                      A
 Frequencies --   1043.7975              1182.5561              1204.4664
 Red. masses --      1.3684                 1.6220                 1.9533
 Frc consts  --      0.8784                 1.3364                 1.6696
 IR Inten    --    117.5330                 6.1451                22.3954

                     19                     20                     21
                      A                      A                      A
 Frequencies --   1212.3780              1334.3871              1440.3235
 Red. masses --      3.0667                 1.1097                 1.1624
 Frc consts  --      2.6559                 1.1642                 1.4208
 IR Inten    --    170.6594                16.4094                70.3593

                     22                     23                     24
                      A                      A                      A
 Frequencies --   1485.9976              1496.9347              1729.3866
 Red. masses --      1.2806                 1.3043                10.1004
 Frc consts  --      1.6661                 1.7219                17.7981
 IR Inten    --     65.7972                 3.0897               477.8908

                     25                     26                     27
                      A                      A                      A
 Frequencies --   2441.1010              3161.3043              3163.5398
 Red. masses --      1.0517                 1.0530                 1.0553
 Frc consts  --      3.6924                 6.2001                 6.2224
 IR Inten    --     71.9132                 4.7929                 2.1917

                     28                     29                     30
                      A                      A                      A
 Frequencies --   3261.8041              3313.7683              3697.7128
 Red. masses --      1.1175                 1.1199                 1.0684
 Frc consts  --      7.0053                 7.2454                 8.6069
 IR Inten    --      5.5460                 7.1893               112.8031

 - Thermochemistry -
 -------------------
 Temperature   298.150 Kelvin.  Pressure   1.00000 Atm.
 Atom     1 has atomic number  6 and mass  12.00000

 Molecular mass:    90.03169 amu.
 Principal axes and moments of inertia in atomic units:
                           1         2         3
     Eigenvalues --   279.809831055.442391156.97830
           X            0.99964   0.02655  -0.00393
           Y           -0.02633   0.99841   0.04982
           Z            0.00524  -0.04970   0.99875
 This molecule is an asymmetric top.
 Rotational symmetry number  1.
 Rotational temperatures (Kelvin)      0.30955     0.08206     0.07486
 Rotational constants (GHZ):           6.44989     1.70994     1.55987
    1 imaginary frequencies ignored.
 Zero-point vibrational energy     227157.6 (Joules/Mol)
                                   54.29196 (Kcal/Mol)
 Warning -- explicit consideration of   8 degrees of freedom as
           vibrations may cause significant error
 Vibrational temperatures:     75.61   138.34   153.44   187.16   289.66
          (Kelvin)            530.07   679.15   785.53   905.21   989.85
                             1139.35  1212.63  1238.71  1470.95  1501.79
                             1701.43  1732.96  1744.34  1919.89  2072.30
                             2138.02  2153.76  2488.20  3512.20  4548.41
                             4551.63  4693.01  4767.77  5320.18

 Zero-point correction=                           0.086520 (Hartree/Particle)
 Thermal correction to Energy=                    0.094278
 Thermal correction to Enthalpy=                  0.095222
 Thermal correction to Gibbs Free Energy=         0.053706
 Sum of electronic and zero-point Energies=           -343.283646
 Sum of electronic and thermal Energies=              -343.275888
 Sum of electronic and thermal Enthalpies=            -343.274944
 Sum of electronic and thermal Free Energies=         -343.316460

                     E (Thermal)             CV                S
                      KCal/Mol        Cal/Mol-Kelvin    Cal/Mol-Kelvin
 Total                   59.160             24.933             87.378
 Electronic               0.000              0.000              0.000
 Translational            0.889              2.981             39.405
 Rotational               0.889              2.981             27.327
 Vibrational             57.383             18.971             20.647
 Vibration     1          0.596              1.977              4.719
 Vibration     2          0.603              1.952              3.531
 Vibration     3          0.606              1.944              3.329
 Vibration     4          0.612              1.923              2.945
 Vibration     5          0.638              1.838              2.121
 Vibration     6          0.741              1.537              1.086
 Vibration     7          0.829              1.312              0.732
 Vibration     8          0.901              1.149              0.553

 Optimization completed.
    -- Stationary point found.
 Normal termination of Gaussian 16 at Wed Dec 23 23:10:58 2020.
