 Gaussian 16, Revision B.01,
 Gaussian 16:  ES64L-G16RevB.01 20-Dec-2017

 --------------------------------------------------------------
 # B3LYP/6-31+G* OPT=(TS, CALCALL, NOEIGEN, maxcycles=100) Freq
 --------------------------------------------------------------

 ---------
 pp_4_0 TS
 ---------
 Symbolic Z-matrix:
 Charge =  0 Multiplicity = 1

 SCF Done:  E(RB3LYP) =  -343.318843139     A.U. after   23 cycles
 SCF Done:  E(RB3LYP) =  -343.330857269     A.U. after   14 cycles
 SCF Done:  E(RB3LYP) =  -343.340104186     A.U. after   15 cycles
 SCF Done:  E(RB3LYP) =  -343.346319846     A.U. after   15 cycles
 SCF Done:  E(RB3LYP) =  -343.351355098     A.U. after   16 cycles
 SCF Done:  E(RB3LYP) =  -343.355598640     A.U. after   15 cycles
 SCF Done:  E(RB3LYP) =  -343.359966903     A.U. after   17 cycles
 SCF Done:  E(RB3LYP) =  -343.363966676     A.U. after   17 cycles
 SCF Done:  E(RB3LYP) =  -343.367864999     A.U. after   17 cycles
 SCF Done:  E(RB3LYP) =  -343.371873710     A.U. after   15 cycles
 SCF Done:  E(RB3LYP) =  -343.440581733     A.U. after   12 cycles
 SCF Done:  E(RB3LYP) =  -343.441863535     A.U. after   13 cycles
 SCF Done:  E(RB3LYP) =  -343.442906570     A.U. after   13 cycles
 SCF Done:  E(RB3LYP) =  -343.443666140     A.U. after   13 cycles
 SCF Done:  E(RB3LYP) =  -343.444116029     A.U. after   13 cycles
 SCF Done:  E(RB3LYP) =  -343.444271132     A.U. after   13 cycles
 SCF Done:  E(RB3LYP) =  -343.444285423     A.U. after   11 cycles
 SCF Done:  E(RB3LYP) =  -343.444286639     A.U. after   11 cycles
 SCF Done:  E(RB3LYP) =  -343.444286742     A.U. after    9 cycles
 Optimization completed.
    -- Stationary point found.
 ******    1 imaginary frequencies (negative Signs) ******
    1 imaginary frequencies ignored.
 Normal termination of Gaussian 16 at Wed Dec 23 22:12:49 2020.

 ---------------------------------------------------------------------
 #N Geom=AllCheck Guess=TCheck SCRF=Check GenChk RB3LYP/6-31+G(d) Freq
 ---------------------------------------------------------------------

 Structure from the checkpoint file:  "/scratch/bell/zhao922/YARP/paper-example/KHP-network/pp_0/TS-folder/Gau-2483.chk"
 ---------
 pp_4_0 TS
 ---------
 Charge =  0 Multiplicity = 1

                         Standard orientation:
 ---------------------------------------------------------------------
 Center     Atomic      Atomic             Coordinates (Angstroms)
 Number     Number       Type             X           Y           Z
 ---------------------------------------------------------------------
      1          6           0       -2.118623   -0.912197    0.035354
      2          6           0        1.141110    0.927432    0.471330
      3          6           0        1.807511   -0.337929    0.420422
      4          8           0       -2.286178    0.276338    0.251941
      5          8           0        0.080507    1.072731   -0.725298
      6          8           0        1.694630   -1.216141   -0.434502
      7          1           0       -0.828517    1.166144   -0.333489
      8          1           0       -1.184435   -1.292034   -0.413823
      9          1           0       -2.905646   -1.642834    0.289884
     10          1           0        2.517728   -0.461908    1.270544
     11          1           0        0.668917    1.240420    1.400846
     12          1           0        0.840299    1.862953   -0.513715
 ---------------------------------------------------------------------

 SCF Done:  E(RB3LYP) =  -343.444286742     A.U. after    1 cycles

 The electronic state is 1-A.
 Alpha  occ. eigenvalues --  -19.23583 -19.22193 -19.12862 -10.32682 -10.26382
 Alpha  occ. eigenvalues --  -10.23655  -1.10856  -1.08892  -1.01805  -0.73692
 Alpha  occ. eigenvalues --   -0.67411  -0.63143  -0.55006  -0.52893  -0.50138
 Alpha  occ. eigenvalues --   -0.49686  -0.44327  -0.43272  -0.41770  -0.40004
 Alpha  occ. eigenvalues --   -0.36984  -0.31885  -0.25085  -0.23323
 Alpha virt. eigenvalues --   -0.09222  -0.03257   0.00156   0.00969   0.01919
 Alpha virt. eigenvalues --    0.03219   0.04045   0.05888   0.06230   0.07511
 Alpha virt. eigenvalues --    0.08987   0.09955   0.10717   0.11584   0.13612

 Mulliken charges:
               1
     1  C   -0.009709
     2  C   -0.452055
     3  C    0.135059
     4  O   -0.355175
     5  O   -0.630546
     6  O   -0.451283
     7  H    0.555047
     8  H    0.230881
     9  H    0.187248
    10  H    0.150913
    11  H    0.205197
    12  H    0.434423
 Sum of Mulliken charges =  -0.00000

 Dipole moment (field-independent basis, Debye):
    X=             -3.2549    Y=              0.7491    Z=              1.6426  Tot=              3.7221
 Quadrupole moment (field-independent basis, Debye-Ang):
   XX=            -39.0326   YY=            -35.6938   ZZ=            -36.9280
   XY=              7.6682   XZ=              3.8394   YZ=             -2.3301

  Exact polarizability:  56.172  -3.244  65.132   4.361   2.816  45.272
 Approx polarizability:  68.342 -10.485 103.335   7.415   7.697  67.582

 ******    1 imaginary frequencies (negative Signs) ******

                      1                      2                      3
                      A                      A                      A
 Frequencies --  -1583.2749                16.8817                73.6029
 Red. masses --      1.0987                 6.6233                 3.5242
 Frc consts  --      1.6227                 0.0011                 0.0112
 IR Inten    --   1440.4316                14.8865                 8.3171

                      4                      5                      6
                      A                      A                      A
 Frequencies --    111.8573               143.7179               235.5379
 Red. masses --      3.8033                 3.3894                 7.8268
 Frc consts  --      0.0280                 0.0412                 0.2558
 IR Inten    --     22.2907                20.4786                13.8762

                      7                      8                      9
                      A                      A                      A
 Frequencies --    256.1512               268.1042               362.1178
 Red. masses --      2.0091                 1.6208                 2.0799
 Frc consts  --      0.0777                 0.0686                 0.1607
 IR Inten    --     27.4380                17.1935                11.6430

                     10                     11                     12
                      A                      A                      A
 Frequencies --    523.1991               551.5411               711.1314
 Red. masses --      2.5513                 1.4633                 3.3868
 Frc consts  --      0.4115                 0.2623                 1.0091
 IR Inten    --    241.3734               149.6664                16.0738

                     13                     14                     15
                      A                      A                      A
 Frequencies --    833.9919               982.6685              1064.3873
 Red. masses --      1.5887                 1.8357                 1.9860
 Frc consts  --      0.6511                 1.0444                 1.3256
 IR Inten    --     22.9347                37.4584                 5.4605

                     16                     17                     18
                      A                      A                      A
 Frequencies --   1160.8257              1217.5713              1281.1845
 Red. masses --      1.0583                 1.3504                 1.3271
 Frc consts  --      0.8402                 1.1795                 1.2834
 IR Inten    --     32.5326                 7.8856                 9.6295

                     19                     20                     21
                      A                      A                      A
 Frequencies --   1309.4756              1332.0877              1407.7749
 Red. masses --      1.1159                 1.2294                 1.3959
 Frc consts  --      1.1274                 1.2853                 1.6299
 IR Inten    --    166.2970                36.2514                 5.4572

                     22                     23                     24
                      A                      A                      A
 Frequencies --   1540.3145              1728.3016              1783.7327
 Red. masses --      1.1364                 8.1932                 6.1282
 Frc consts  --      1.5885                14.4192                11.4879
 IR Inten    --     21.2272               237.9050               132.0959

                     25                     26                     27
                      A                      A                      A
 Frequencies --   2381.4603              2889.5705              2982.5996
 Red. masses --      1.0790                 1.0801                 1.0475
 Frc consts  --      3.6053                 5.3134                 5.4901
 IR Inten    --    108.2925               123.7583                54.4914

                     28                     29                     30
                      A                      A                      A
 Frequencies --   3076.0284              3180.6425              3362.1993
 Red. masses --      1.1251                 1.0893                 1.0680
 Frc consts  --      6.2725                 6.4925                 7.1133
 IR Inten    --     33.8431                 4.6740               723.0446

 - Thermochemistry -
 -------------------
 Temperature   298.150 Kelvin.  Pressure   1.00000 Atm.
 Atom     1 has atomic number  6 and mass  12.00000

 Molecular mass:    90.03169 amu.
 Principal axes and moments of inertia in atomic units:
                           1         2         3
     Eigenvalues --   346.96819 993.399191187.48861
           X            0.99924   0.03592   0.01520
           Y           -0.03592   0.99935  -0.00040
           Z           -0.01521  -0.00015   0.99988
 This molecule is an asymmetric top.
 Rotational symmetry number  1.
 Rotational temperatures (Kelvin)      0.24963     0.08719     0.07294
 Rotational constants (GHZ):           5.20146     1.81673     1.51980
    1 imaginary frequencies ignored.
 Zero-point vibrational energy     219925.4 (Joules/Mol)
                                   52.56344 (Kcal/Mol)
 Warning -- explicit consideration of  10 degrees of freedom as
           vibrations may cause significant error
 Vibrational temperatures:     24.29   105.90   160.94   206.78   338.89
          (Kelvin)            368.54   385.74   521.01   752.77   793.54
                             1023.16  1199.93  1413.84  1531.42  1670.17
                             1751.81  1843.34  1884.04  1916.58  2025.47
                             2216.17  2486.64  2566.39  3426.39  4157.45
                             4291.30  4425.72  4576.24  4837.45

 Zero-point correction=                           0.083765 (Hartree/Particle)
 Thermal correction to Energy=                    0.092176
 Thermal correction to Enthalpy=                  0.093120
 Thermal correction to Gibbs Free Energy=         0.049330
 Sum of electronic and zero-point Energies=           -343.360522
 Sum of electronic and thermal Energies=              -343.352111
 Sum of electronic and thermal Enthalpies=            -343.351167
 Sum of electronic and thermal Free Energies=         -343.394957

                     E (Thermal)             CV                S
                      KCal/Mol        Cal/Mol-Kelvin    Cal/Mol-Kelvin
 Total                   57.841             26.123             92.165
 Electronic               0.000              0.000              0.000
 Translational            0.889              2.981             39.405
 Rotational               0.889              2.981             27.506
 Vibrational             56.064             20.161             25.254
 Vibration     1          0.593              1.986              6.971
 Vibration     2          0.599              1.966              4.055
 Vibration     3          0.607              1.940              3.236
 Vibration     4          0.616              1.909              2.754
 Vibration     5          0.655              1.786              1.836
 Vibration     6          0.666              1.752              1.688
 Vibration     7          0.673              1.732              1.608
 Vibration     8          0.736              1.550              1.113
 Vibration     9          0.878              1.199              0.603
 Vibration    10          0.907              1.136              0.541

 Optimization completed.
    -- Stationary point found.
 Normal termination of Gaussian 16 at Wed Dec 23 22:13:04 2020.
