 Gaussian 16, Revision B.01,
 Gaussian 16:  ES64L-G16RevB.01 20-Dec-2017

 --------------------------------------------------------------
 # B3LYP/6-31+G* OPT=(TS, CALCALL, NOEIGEN, maxcycles=100) Freq
 --------------------------------------------------------------

 ---------
 pp_5_0 TS
 ---------
 Symbolic Z-matrix:
 Charge =  0 Multiplicity = 1

 SCF Done:  E(RB3LYP) =  -343.305104926     A.U. after   19 cycles
 SCF Done:  E(RB3LYP) =  -343.320114951     A.U. after   14 cycles
 SCF Done:  E(RB3LYP) =  -343.326644276     A.U. after   14 cycles
 SCF Done:  E(RB3LYP) =  -343.332068925     A.U. after   13 cycles
 SCF Done:  E(RB3LYP) =  -343.336546323     A.U. after   13 cycles
 SCF Done:  E(RB3LYP) =  -343.340921459     A.U. after   13 cycles
 SCF Done:  E(RB3LYP) =  -343.345125392     A.U. after   13 cycles
 SCF Done:  E(RB3LYP) =  -343.349051233     A.U. after   13 cycles
 SCF Done:  E(RB3LYP) =  -343.352573894     A.U. after   13 cycles
 SCF Done:  E(RB3LYP) =  -343.355668125     A.U. after   13 cycles
 SCF Done:  E(RB3LYP) =  -343.373115299     A.U. after   14 cycles
 SCF Done:  E(RB3LYP) =  -343.378373968     A.U. after   14 cycles
 SCF Done:  E(RB3LYP) =  -343.383709709     A.U. after   13 cycles
 SCF Done:  E(RB3LYP) =  -343.387431012     A.U. after   15 cycles
 SCF Done:  E(RB3LYP) =  -343.390399190     A.U. after   15 cycles
 SCF Done:  E(RB3LYP) =  -343.390909856     A.U. after   13 cycles
 SCF Done:  E(RB3LYP) =  -343.390957909     A.U. after   13 cycles
 SCF Done:  E(RB3LYP) =  -343.390960101     A.U. after   12 cycles
 SCF Done:  E(RB3LYP) =  -343.390960113     A.U. after   10 cycles
 Optimization completed.
    -- Stationary point found.
 ******    1 imaginary frequencies (negative Signs) ******
    1 imaginary frequencies ignored.
 Normal termination of Gaussian 16 at Wed Dec 23 22:08:56 2020.

 ---------------------------------------------------------------------
 #N Geom=AllCheck Guess=TCheck SCRF=Check GenChk RB3LYP/6-31+G(d) Freq
 ---------------------------------------------------------------------

 Structure from the checkpoint file:  "/scratch/bell/zhao922/YARP/paper-example/KHP-network/pp_0/TS-folder/Gau-3113.chk"
 ---------
 pp_5_0 TS
 ---------
 Charge =  0 Multiplicity = 1

                         Standard orientation:
 ---------------------------------------------------------------------
 Center     Atomic      Atomic             Coordinates (Angstroms)
 Number     Number       Type             X           Y           Z
 ---------------------------------------------------------------------
      1          6           0        0.721073    0.410340   -0.090681
      2          6           0       -0.885735   -0.958887   -0.218424
      3          6           0       -1.862208   -0.050883    0.410332
      4          8           0        1.236469   -0.758435    0.036920
      5          8           0        2.719391    0.500449   -0.048010
      6          8           0       -2.493747    0.795766   -0.205022
      7          1           0        2.994489    0.492441    0.890096
      8          1           0        0.579271    0.865151   -1.073742
      9          1           0        0.488416    1.023796    0.784481
     10          1           0       -1.994345   -0.167373    1.505027
     11          1           0       -0.683682   -1.882495    0.317346
     12          1           0       -0.919829   -1.037190   -1.301668
 ---------------------------------------------------------------------

 SCF Done:  E(RB3LYP) =  -343.390960113     A.U. after    1 cycles

 The electronic state is 1-A.
 Alpha  occ. eigenvalues --  -19.24970 -19.18279 -19.17112 -10.33594 -10.30924
 Alpha  occ. eigenvalues --  -10.26000  -1.10542  -1.07261  -0.95136  -0.77865
 Alpha  occ. eigenvalues --   -0.68377  -0.61125  -0.53711  -0.51553  -0.49729
 Alpha  occ. eigenvalues --   -0.49079  -0.46853  -0.43681  -0.42550  -0.40100
 Alpha  occ. eigenvalues --   -0.32813  -0.31235  -0.29186  -0.26212
 Alpha virt. eigenvalues --   -0.15382  -0.05586  -0.01678  -0.00060   0.01778
 Alpha virt. eigenvalues --    0.01971   0.02992   0.05183   0.06103   0.07200
 Alpha virt. eigenvalues --    0.07333   0.08214   0.11140   0.11715   0.13674

 Mulliken charges:
               1
     1  C   -0.134383
     2  C   -0.529687
     3  C    0.180932
     4  O   -0.078923
     5  O   -0.677440
     6  O   -0.354030
     7  H    0.444073
     8  H    0.244223
     9  H    0.216723
    10  H    0.175564
    11  H    0.247222
    12  H    0.265726
 Sum of Mulliken charges =  -0.00000

 Dipole moment (field-independent basis, Debye):
    X=             -0.8952    Y=             -1.2063    Z=              2.2029  Tot=              2.6663
 Quadrupole moment (field-independent basis, Debye-Ang):
   XX=            -49.9889   YY=            -37.0453   ZZ=            -32.7979
   XY=              5.5995   XZ=              2.6042   YZ=              1.3738

  Exact polarizability: 134.794  12.644  53.701   2.613  -1.020  45.012
 Approx polarizability: 385.728  56.042  95.972  11.351  -4.016  62.920

 ******    1 imaginary frequencies (negative Signs) ******

                      1                      2                      3
                      A                      A                      A
 Frequencies --   -901.5919                49.8618               103.9941
 Red. masses --      9.2435                 3.0299                 6.1305
 Frc consts  --      4.4270                 0.0044                 0.0391
 IR Inten    --     94.7692                19.4244                 6.6927

                      4                      5                      6
                      A                      A                      A
 Frequencies --    170.3110               207.9149               237.5476
 Red. masses --      3.3481                 5.3981                 4.9164
 Frc consts  --      0.0572                 0.1375                 0.1635
 IR Inten    --      0.4008                 0.3635                 2.9888

                      7                      8                      9
                      A                      A                      A
 Frequencies --    324.4256               436.0038               503.5018
 Red. masses --      3.7526                 7.2250                 2.3858
 Frc consts  --      0.2327                 0.8092                 0.3564
 IR Inten    --      1.5703               370.4228                10.0461

                     10                     11                     12
                      A                      A                      A
 Frequencies --    579.9183               694.0388               808.0835
 Red. masses --      1.1418                 1.1291                 1.1349
 Frc consts  --      0.2262                 0.3205                 0.4366
 IR Inten    --    129.0567                63.8902                 0.8223

                     13                     14                     15
                      A                      A                      A
 Frequencies --    849.6585               950.5655              1007.4971
 Red. masses --      1.2183                 1.3680                 1.5102
 Frc consts  --      0.5182                 0.7283                 0.9032
 IR Inten    --      9.3963                 4.8734                82.6471

                     16                     17                     18
                      A                      A                      A
 Frequencies --   1047.2786              1113.0458              1134.4302
 Red. masses --      1.4358                 1.0920                 2.1379
 Frc consts  --      0.9278                 0.7971                 1.6210
 IR Inten    --      4.7157                 0.6483               150.4510

                     19                     20                     21
                      A                      A                      A
 Frequencies --   1202.6239              1415.3498              1431.6453
 Red. masses --      1.3178                 1.1718                 2.4064
 Frc consts  --      1.1229                 1.3831                 2.9060
 IR Inten    --      6.2371                 3.0218                47.3755

                     22                     23                     24
                      A                      A                      A
 Frequencies --   1470.1629              1580.6857              1732.5455
 Red. masses --      1.1800                 1.5875                 8.8162
 Frc consts  --      1.5026                 2.3370                15.5920
 IR Inten    --     15.9036                21.6686               314.1274

                     25                     26                     27
                      A                      A                      A
 Frequencies --   2956.8037              3081.0140              3163.4331
 Red. masses --      1.0847                 1.0461                 1.0535
 Frc consts  --      5.5873                 5.8510                 6.2117
 IR Inten    --    108.8414                14.8175                 3.2920

                     28                     29                     30
                      A                      A                      A
 Frequencies --   3191.1993              3263.6241              3693.3174
 Red. masses --      1.1260                 1.1173                 1.0676
 Frc consts  --      6.7563                 7.0116                 8.5801
 IR Inten    --     10.9020                 0.5834                65.1321

 - Thermochemistry -
 -------------------
 Temperature   298.150 Kelvin.  Pressure   1.00000 Atm.
 Atom     1 has atomic number  6 and mass  12.00000

 Molecular mass:    90.03169 amu.
 Principal axes and moments of inertia in atomic units:
                           1         2         3
     Eigenvalues --   189.776791159.073251276.99048
           X            0.99983   0.01838   0.00175
           Y           -0.01842   0.99953   0.02435
           Z           -0.00130  -0.02438   0.99970
 This molecule is an asymmetric top.
 Rotational symmetry number  1.
 Rotational temperatures (Kelvin)      0.45640     0.07473     0.06783
 Rotational constants (GHZ):           9.50981     1.55706     1.41328
    1 imaginary frequencies ignored.
 Zero-point vibrational energy     229685.9 (Joules/Mol)
                                   54.89624 (Kcal/Mol)
 Warning -- explicit consideration of   9 degrees of freedom as
           vibrations may cause significant error
 Vibrational temperatures:     71.74   149.62   245.04   299.14   341.78
          (Kelvin)            466.78   627.31   724.43   834.37   998.57
                             1162.65  1222.47  1367.65  1449.56  1506.80
                             1601.42  1632.19  1730.31  2036.37  2059.82
                             2115.24  2274.25  2492.75  4254.18  4432.89
                             4551.47  4591.42  4695.63  5313.86

 Zero-point correction=                           0.087483 (Hartree/Particle)
 Thermal correction to Energy=                    0.095052
 Thermal correction to Enthalpy=                  0.095996
 Thermal correction to Gibbs Free Energy=         0.055375
 Sum of electronic and zero-point Energies=           -343.303477
 Sum of electronic and thermal Energies=              -343.295908
 Sum of electronic and thermal Enthalpies=            -343.294964
 Sum of electronic and thermal Free Energies=         -343.335585

                     E (Thermal)             CV                S
                      KCal/Mol        Cal/Mol-Kelvin    Cal/Mol-Kelvin
 Total                   59.646             24.986             85.494
 Electronic               0.000              0.000              0.000
 Translational            0.889              2.981             39.405
 Rotational               0.889              2.981             27.132
 Vibrational             57.869             19.024             18.957
 Vibration     1          0.595              1.978              4.823
 Vibration     2          0.605              1.946              3.378
 Vibration     3          0.625              1.879              2.432
 Vibration     4          0.641              1.829              2.062
 Vibration     5          0.656              1.783              1.821
 Vibration     6          0.709              1.627              1.288
 Vibration     7          0.796              1.392              0.839
 Vibration     8          0.859              1.242              0.649
 Vibration     9          0.937              1.075              0.486

 Optimization completed.
    -- Stationary point found.
 Normal termination of Gaussian 16 at Wed Dec 23 22:09:12 2020.
