 Gaussian 16, Revision B.01,
 Gaussian 16:  ES64L-G16RevB.01 20-Dec-2017

 --------------------------------------------------------------
 # B3LYP/6-31+G* OPT=(TS, CALCALL, NOEIGEN, maxcycles=100) Freq
 --------------------------------------------------------------

 ---------
 pp_6_0 TS
 ---------
 Symbolic Z-matrix:
 Charge =  0 Multiplicity = 1

 SCF Done:  E(RB3LYP) =  -343.229893395     A.U. after   16 cycles
 SCF Done:  E(RB3LYP) =  -343.260599094     A.U. after   14 cycles
 SCF Done:  E(RB3LYP) =  -343.282717070     A.U. after   14 cycles
 SCF Done:  E(RB3LYP) =  -343.290990423     A.U. after   13 cycles
 SCF Done:  E(RB3LYP) =  -343.300584369     A.U. after   14 cycles
 SCF Done:  E(RB3LYP) =  -343.303777351     A.U. after   13 cycles
 SCF Done:  E(RB3LYP) =  -343.304191464     A.U. after   11 cycles
 SCF Done:  E(RB3LYP) =  -343.305994585     A.U. after   12 cycles
 SCF Done:  E(RB3LYP) =  -343.315245811     A.U. after   14 cycles
 SCF Done:  E(RB3LYP) =  -343.318142634     A.U. after   14 cycles
 SCF Done:  E(RB3LYP) =  -343.412765792     A.U. after   16 cycles
 SCF Done:  E(RB3LYP) =  -343.413566528     A.U. after   16 cycles
 SCF Done:  E(RB3LYP) =  -343.414330166     A.U. after   15 cycles
 SCF Done:  E(RB3LYP) =  -343.414799185     A.U. after   16 cycles
 SCF Done:  E(RB3LYP) =  -343.414960729     A.U. after   15 cycles
 SCF Done:  E(RB3LYP) =  -343.414968219     A.U. after   12 cycles
 SCF Done:  E(RB3LYP) =  -343.414969524     A.U. after   13 cycles
 SCF Done:  E(RB3LYP) =  -343.414969838     A.U. after   11 cycles
 SCF Done:  E(RB3LYP) =  -343.414969885     A.U. after   11 cycles
 Optimization completed.
    -- Stationary point found.
 ******    1 imaginary frequencies (negative Signs) ******
    1 imaginary frequencies ignored.
 Normal termination of Gaussian 16 at Wed Dec 23 22:09:40 2020.

 ---------------------------------------------------------------------
 #N Geom=AllCheck Guess=TCheck SCRF=Check GenChk RB3LYP/6-31+G(d) Freq
 ---------------------------------------------------------------------

 Structure from the checkpoint file:  "/scratch/bell/zhao922/YARP/paper-example/KHP-network/pp_0/TS-folder/Gau-2770.chk"
 ---------
 pp_6_0 TS
 ---------
 Charge =  0 Multiplicity = 1

                         Standard orientation:
 ---------------------------------------------------------------------
 Center     Atomic      Atomic             Coordinates (Angstroms)
 Number     Number       Type             X           Y           Z
 ---------------------------------------------------------------------
      1          6           0       -2.173814    0.741918    0.135052
      2          6           0        0.988115   -1.051969    0.040814
      3          6           0        2.031056    0.073837   -0.094224
      4          8           0       -2.097729   -0.434611   -0.435912
      5          8           0       -0.254815   -0.586789    0.366175
      6          8           0        1.795671    1.255526   -0.069529
      7          1           0       -1.045766    0.750771    0.606565
      8          1           0       -2.152737    1.611639   -0.543979
      9          1           0       -2.841106    0.817994    1.009409
     10          1           0        3.067389   -0.310830   -0.217725
     11          1           0        0.961919   -1.513225   -0.966940
     12          1           0        1.393147   -1.812071    0.736947
 ---------------------------------------------------------------------

 SCF Done:  E(RB3LYP) =  -343.414969885     A.U. after    1 cycles

 The electronic state is 1-A.
 Alpha  occ. eigenvalues --  -19.21254 -19.19034 -19.19006 -10.31137 -10.26528
 Alpha  occ. eigenvalues --  -10.25140  -1.08545  -1.05110  -1.00493  -0.73977
 Alpha  occ. eigenvalues --   -0.66218  -0.59453  -0.51545  -0.51461  -0.49304
 Alpha  occ. eigenvalues --   -0.47977  -0.45881  -0.44916  -0.40637  -0.36895
 Alpha  occ. eigenvalues --   -0.33258  -0.29761  -0.28608  -0.27276
 Alpha virt. eigenvalues --   -0.16414  -0.05370   0.00361   0.01650   0.03218
 Alpha virt. eigenvalues --    0.03682   0.04266   0.04981   0.06313   0.07976
 Alpha virt. eigenvalues --    0.08770   0.09410   0.09664   0.13854   0.15401

 Mulliken charges:
               1
     1  C   -0.400852
     2  C   -0.338348
     3  C    0.242698
     4  O   -0.167037
     5  O   -0.313450
     6  O   -0.335751
     7  H    0.299590
     8  H    0.205194
     9  H    0.200316
    10  H    0.171061
    11  H    0.237423
    12  H    0.199157
 Sum of Mulliken charges =  -0.00000

 Dipole moment (field-independent basis, Debye):
    X=              1.4273    Y=             -0.7076    Z=              0.1657  Tot=              1.6016
 Quadrupole moment (field-independent basis, Debye-Ang):
   XX=            -32.3193   YY=            -37.4543   ZZ=            -35.6932
   XY=             -9.9807   XZ=             -2.0383   YZ=              0.8647

  Exact polarizability: 106.554 -14.568  60.902  -0.895   0.662  39.467
 Approx polarizability: 180.745 -26.182  99.208  11.325   2.855  58.288

 ******    1 imaginary frequencies (negative Signs) ******

                      1                      2                      3
                      A                      A                      A
 Frequencies --  -1084.4930                15.4544                68.6874
 Red. masses --      1.2339                 6.8799                 3.0338
 Frc consts  --      0.8550                 0.0010                 0.0084
 IR Inten    --    103.4866                 1.6792                29.3730

                      4                      5                      6
                      A                      A                      A
 Frequencies --    153.8881               232.5819               329.9226
 Red. masses --      2.9373                 2.9041                 4.1381
 Frc consts  --      0.0410                 0.0926                 0.2654
 IR Inten    --     24.1236                 3.1869                 6.5322

                      7                      8                      9
                      A                      A                      A
 Frequencies --    400.1416               453.1597               613.6794
 Red. masses --      3.5710                 1.3045                 5.1168
 Frc consts  --      0.3369                 0.1578                 1.1353
 IR Inten    --     10.7743                11.6501                61.3272

                     10                     11                     12
                      A                      A                      A
 Frequencies --    726.0179               772.2797               832.3157
 Red. masses --      1.3430                 6.0115                 3.0892
 Frc consts  --      0.4171                 2.1124                 1.2609
 IR Inten    --      4.5361                12.1598                44.3724

                     13                     14                     15
                      A                      A                      A
 Frequencies --   1050.6343              1087.1503              1128.7517
 Red. masses --      1.9590                 1.4849                 3.1379
 Frc consts  --      1.2741                 1.0340                 2.3555
 IR Inten    --     11.6298                50.8594                16.8723

                     16                     17                     18
                      A                      A                      A
 Frequencies --   1185.7682              1214.4852              1264.4522
 Red. masses --      1.1776                 1.1695                 1.0969
 Frc consts  --      0.9756                 1.0163                 1.0332
 IR Inten    --     25.1740                23.9464                22.4770

                     19                     20                     21
                      A                      A                      A
 Frequencies --   1276.4381              1318.4456              1397.5392
 Red. masses --      2.6396                 1.3122                 1.1817
 Frc consts  --      2.5339                 1.3439                 1.3599
 IR Inten    --      8.0872                23.0695                16.6576

                     22                     23                     24
                      A                      A                      A
 Frequencies --   1461.9038              1527.1117              1821.1431
 Red. masses --      1.1116                 1.1829                 6.7320
 Frc consts  --      1.3997                 1.6253                13.1547
 IR Inten    --     29.8572                27.1577               159.4856

                     25                     26                     27
                      A                      A                      A
 Frequencies --   1857.9809              2915.5920              2942.9426
 Red. masses --      1.1702                 1.0784                 1.0587
 Frc consts  --      2.3802                 5.4013                 5.4023
 IR Inten    --    117.3101                66.4251               120.5131

                     28                     29                     30
                      A                      A                      A
 Frequencies --   2964.2586              2966.9228              3049.3658
 Red. masses --      1.0463                 1.0958                 1.1135
 Frc consts  --      5.4166                 5.6833                 6.1006
 IR Inten    --     38.9391                32.2045                33.6439

 - Thermochemistry -
 -------------------
 Temperature   298.150 Kelvin.  Pressure   1.00000 Atm.
 Atom     1 has atomic number  6 and mass  12.00000

 Molecular mass:    90.03169 amu.
 Principal axes and moments of inertia in atomic units:
                           1         2         3
     Eigenvalues --   255.09499 987.963761180.25007
           X            0.99839  -0.05545  -0.01173
           Y            0.05561   0.99836   0.01331
           Z            0.01098  -0.01394   0.99984
 This molecule is an asymmetric top.
 Rotational symmetry number  1.
 Rotational temperatures (Kelvin)      0.33954     0.08767     0.07339
 Rotational constants (GHZ):           7.07478     1.82673     1.52912
    1 imaginary frequencies ignored.
 Zero-point vibrational energy     221482.7 (Joules/Mol)
                                   52.93563 (Kcal/Mol)
 Warning -- explicit consideration of   8 degrees of freedom as
           vibrations may cause significant error
 Vibrational temperatures:     22.24    98.83   221.41   334.63   474.69
          (Kelvin)            575.71   652.00   882.95  1044.58  1111.14
                             1197.52  1511.63  1564.17  1624.02  1706.06
                             1747.37  1819.26  1836.51  1896.95  2010.75
                             2103.35  2197.17  2620.22  2673.22  4194.89
                             4234.24  4264.91  4268.74  4387.36

 Zero-point correction=                           0.084358 (Hartree/Particle)
 Thermal correction to Energy=                    0.091579
 Thermal correction to Enthalpy=                  0.092523
 Thermal correction to Gibbs Free Energy=         0.051208
 Sum of electronic and zero-point Energies=           -343.330612
 Sum of electronic and thermal Energies=              -343.323391
 Sum of electronic and thermal Enthalpies=            -343.322447
 Sum of electronic and thermal Free Energies=         -343.363762

                     E (Thermal)             CV                S
                      KCal/Mol        Cal/Mol-Kelvin    Cal/Mol-Kelvin
 Total                   57.466             23.179             86.954
 Electronic               0.000              0.000              0.000
 Translational            0.889              2.981             39.405
 Rotational               0.889              2.981             27.189
 Vibrational             55.689             17.217             20.361
 Vibration     1          0.593              1.986              7.146
 Vibration     2          0.598              1.969              4.191
 Vibration     3          0.619              1.898              2.624
 Vibration     4          0.653              1.791              1.859
 Vibration     5          0.713              1.616              1.260
 Vibration     6          0.766              1.470              0.962
 Vibration     7          0.812              1.354              0.786
 Vibration     8          0.973              1.003              0.427

 Optimization completed.
    -- Stationary point found.
 Normal termination of Gaussian 16 at Wed Dec 23 22:09:54 2020.
