 Gaussian 16, Revision B.01,
 Gaussian 16:  ES64L-G16RevB.01 20-Dec-2017

 --------------------------------------------------------------
 # B3LYP/6-31+G* OPT=(TS, CALCALL, NOEIGEN, maxcycles=100) Freq
 --------------------------------------------------------------

 ---------
 pp_7_0 TS
 ---------
 Symbolic Z-matrix:
 Charge =  0 Multiplicity = 1

 SCF Done:  E(RB3LYP) =  -343.240057076     A.U. after   18 cycles
 SCF Done:  E(RB3LYP) =  -343.272285449     A.U. after   15 cycles
 SCF Done:  E(RB3LYP) =  -343.307222611     A.U. after   15 cycles
 SCF Done:  E(RB3LYP) =  -343.332095079     A.U. after   14 cycles
 SCF Done:  E(RB3LYP) =  -343.355635298     A.U. after   13 cycles
 SCF Done:  E(RB3LYP) =  -343.374958845     A.U. after   13 cycles
 SCF Done:  E(RB3LYP) =  -343.391065531     A.U. after   13 cycles
 SCF Done:  E(RB3LYP) =  -343.398941421     A.U. after   13 cycles
 SCF Done:  E(RB3LYP) =  -343.403280661     A.U. after   12 cycles
 SCF Done:  E(RB3LYP) =  -343.405981096     A.U. after   14 cycles
 SCF Done:  E(RB3LYP) =  -343.407725089     A.U. after   14 cycles
 SCF Done:  E(RB3LYP) =  -343.409244094     A.U. after   14 cycles
 SCF Done:  E(RB3LYP) =  -343.409876158     A.U. after   14 cycles
 SCF Done:  E(RB3LYP) =  -343.409967990     A.U. after   11 cycles
 SCF Done:  E(RB3LYP) =  -343.409968593     A.U. after   10 cycles
 Optimization completed.
    -- Stationary point found.
 ******    1 imaginary frequencies (negative Signs) ******
    1 imaginary frequencies ignored.
 Normal termination of Gaussian 16 at Wed Dec 23 22:06:27 2020.

 ---------------------------------------------------------------------
 #N Geom=AllCheck Guess=TCheck SCRF=Check GenChk RB3LYP/6-31+G(d) Freq
 ---------------------------------------------------------------------

 Structure from the checkpoint file:  "/scratch/bell/zhao922/YARP/paper-example/KHP-network/pp_0/TS-folder/Gau-3473.chk"
 ---------
 pp_7_0 TS
 ---------
 Charge =  0 Multiplicity = 1

                         Standard orientation:
 ---------------------------------------------------------------------
 Center     Atomic      Atomic             Coordinates (Angstroms)
 Number     Number       Type             X           Y           Z
 ---------------------------------------------------------------------
      1          6           0        0.985218   -1.425732    0.062346
      2          6           0        1.669124   -0.196830   -0.058473
      3          6           0        0.171172    0.830906   -0.333015
      4          8           0       -0.657446   -0.404234    0.331827
      5          8           0       -1.995307   -0.492884   -0.219817
      6          8           0        0.111143    1.902597    0.234791
      7          1           0       -2.530680   -0.237355    0.554700
      8          1           0        0.711736   -2.004100   -0.815737
      9          1           0        0.885809   -1.940952    1.011385
     10          1           0       -0.044231    0.684639   -1.405269
     11          1           0        2.138951    0.208876    0.834163
     12          1           0        2.218214   -0.005003   -0.978799
 ---------------------------------------------------------------------

 SCF Done:  E(RB3LYP) =  -343.409968593     A.U. after    1 cycles

 The electronic state is 1-A.
 Alpha  occ. eigenvalues --  -19.23736 -19.22876 -19.13456 -10.30998 -10.27454
 Alpha  occ. eigenvalues --  -10.21400  -1.12878  -1.03671  -0.91209  -0.79775
 Alpha  occ. eigenvalues --   -0.65327  -0.59660  -0.55349  -0.49919  -0.48264
 Alpha  occ. eigenvalues --   -0.46903  -0.45087  -0.43449  -0.40165  -0.38790
 Alpha  occ. eigenvalues --   -0.33797  -0.31971  -0.27822  -0.24365
 Alpha virt. eigenvalues --   -0.08618  -0.00910   0.00516   0.02126   0.02920
 Alpha virt. eigenvalues --    0.04214   0.05259   0.06457   0.07661   0.07773
 Alpha virt. eigenvalues --    0.08141   0.09875   0.10179   0.13074   0.14369

 Mulliken charges:
               1
     1  C   -0.243331
     2  C   -0.510120
     3  C    0.180812
     4  O   -0.084950
     5  O   -0.550457
     6  O   -0.415935
     7  H    0.479847
     8  H    0.235849
     9  H    0.240844
    10  H    0.187991
    11  H    0.242481
    12  H    0.236970
 Sum of Mulliken charges =  -0.00000

 Dipole moment (field-independent basis, Debye):
    X=              0.9667    Y=             -3.6066    Z=             -0.2266  Tot=              3.7407
 Quadrupole moment (field-independent basis, Debye-Ang):
   XX=            -31.1423   YY=            -41.5108   ZZ=            -34.2735
   XY=             -2.1581   XZ=             -3.5438   YZ=             -2.1387

  Exact polarizability:  70.130  -4.474  71.044   0.243   0.206  43.078
 Approx polarizability: 101.996  -9.424 130.903   0.327   2.233  61.615

 ******    1 imaginary frequencies (negative Signs) ******

                      1                      2                      3
                      A                      A                      A
 Frequencies --   -493.7745               100.6389               197.2817
 Red. masses --      8.9816                 2.8926                 3.5234
 Frc consts  --      1.2902                 0.0173                 0.0808
 IR Inten    --    121.2806                10.8101                 6.3744

                      4                      5                      6
                      A                      A                      A
 Frequencies --    243.2983               255.0197               334.3205
 Red. masses --      5.2388                 6.6006                 1.2303
 Frc consts  --      0.1827                 0.2529                 0.0810
 IR Inten    --     30.6946                 7.4359                88.6226

                      7                      8                      9
                      A                      A                      A
 Frequencies --    437.3286               478.9406               550.0868
 Red. masses --      4.5438                 4.8228                 6.4849
 Frc consts  --      0.5120                 0.6518                 1.1562
 IR Inten    --     21.6466                40.4563                40.5480

                     10                     11                     12
                      A                      A                      A
 Frequencies --    649.8370               761.0492               838.9289
 Red. masses --      2.2800                 1.4394                 1.1615
 Frc consts  --      0.5673                 0.4912                 0.4816
 IR Inten    --     74.3814                38.7619                 7.7195

                     13                     14                     15
                      A                      A                      A
 Frequencies --    859.5490               994.5969              1040.7674
 Red. masses --      4.3236                 1.2505                 1.1304
 Frc consts  --      1.8821                 0.7289                 0.7214
 IR Inten    --     38.9180                93.3660                34.5268

                     16                     17                     18
                      A                      A                      A
 Frequencies --   1089.4604              1126.4520              1244.1958
 Red. masses --      1.2730                 1.2634                 1.4967
 Frc consts  --      0.8902                 0.9446                 1.3651
 IR Inten    --      2.4483                 6.3660                 7.5491

                     19                     20                     21
                      A                      A                      A
 Frequencies --   1256.6654              1325.7776              1352.0035
 Red. masses --      1.9071                 1.1094                 1.1123
 Frc consts  --      1.7745                 1.1489                 1.1979
 IR Inten    --     28.2988                 8.6383                22.0170

                     22                     23                     24
                      A                      A                      A
 Frequencies --   1490.3699              1562.0661              1694.4137
 Red. masses --      1.1078                 1.4339                 9.5581
 Frc consts  --      1.4498                 2.0614                16.1682
 IR Inten    --      3.5814                17.2743               414.3938

                     25                     26                     27
                      A                      A                      A
 Frequencies --   2985.7763              3143.2380              3181.2678
 Red. masses --      1.0916                 1.0567                 1.0582
 Frc consts  --      5.7336                 6.1510                 6.3098
 IR Inten    --     67.2967                 1.2413                 4.1262

                     28                     29                     30
                      A                      A                      A
 Frequencies --   3223.5337              3274.9093              3687.3102
 Red. masses --      1.1146                 1.1184                 1.0685
 Frc consts  --      6.8238                 7.0673                 8.5597
 IR Inten    --      1.7933                 1.4511                67.4283

 - Thermochemistry -
 -------------------
 Temperature   298.150 Kelvin.  Pressure   1.00000 Atm.
 Atom     1 has atomic number  6 and mass  12.00000

 Molecular mass:    90.03169 amu.
 Principal axes and moments of inertia in atomic units:
                           1         2         3
     Eigenvalues --   414.73575 514.55320 854.54762
           X            0.99666  -0.08090  -0.01141
           Y            0.08076   0.99666  -0.01234
           Z            0.01237   0.01137   0.99986
 This molecule is an asymmetric top.
 Rotational symmetry number  1.
 Rotational temperatures (Kelvin)      0.20884     0.16833     0.10136
 Rotational constants (GHZ):           4.35154     3.50739     2.11193
    1 imaginary frequencies ignored.
 Zero-point vibrational energy     235539.2 (Joules/Mol)
                                   56.29523 (Kcal/Mol)
 Warning -- explicit consideration of   8 degrees of freedom as
           vibrations may cause significant error
 Vibrational temperatures:    144.80   283.84   350.05   366.92   481.01
          (Kelvin)            629.22   689.09   791.45   934.97  1094.98
                             1207.03  1236.70  1431.00  1497.43  1567.49
                             1620.71  1790.12  1808.06  1907.50  1945.23
                             2144.31  2247.46  2437.88  4295.87  4522.42
                             4577.13  4637.95  4711.86  5305.22

 Zero-point correction=                           0.089712 (Hartree/Particle)
 Thermal correction to Energy=                    0.096433
 Thermal correction to Enthalpy=                  0.097377
 Thermal correction to Gibbs Free Energy=         0.059412
 Sum of electronic and zero-point Energies=           -343.320256
 Sum of electronic and thermal Energies=              -343.313536
 Sum of electronic and thermal Enthalpies=            -343.312592
 Sum of electronic and thermal Free Energies=         -343.350557

                     E (Thermal)             CV                S
                      KCal/Mol        Cal/Mol-Kelvin    Cal/Mol-Kelvin
 Total                   60.513             23.555             79.904
 Electronic               0.000              0.000              0.000
 Translational            0.889              2.981             39.405
 Rotational               0.889              2.981             26.703
 Vibrational             58.735             17.594             13.796
 Vibration     1          0.604              1.949              3.442
 Vibration     2          0.637              1.844              2.158
 Vibration     3          0.659              1.774              1.779
 Vibration     4          0.665              1.754              1.696
 Vibration     5          0.716              1.607              1.239
 Vibration     6          0.798              1.389              0.835
 Vibration     7          0.835              1.297              0.713
 Vibration     8          0.905              1.139              0.544

 Optimization completed.
    -- Stationary point found.
 Normal termination of Gaussian 16 at Wed Dec 23 22:06:43 2020.
