 Gaussian 16, Revision B.01,
 Gaussian 16:  ES64L-G16RevB.01 20-Dec-2017

 --------------------------------------------------------------
 # B3LYP/6-31+G* OPT=(TS, CALCALL, NOEIGEN, maxcycles=100) Freq
 --------------------------------------------------------------

 ---------
 pp_8_0 TS
 ---------
 Symbolic Z-matrix:
 Charge =  0 Multiplicity = 1

 SCF Done:  E(RB3LYP) =  -343.321485670     A.U. after   17 cycles
 SCF Done:  E(RB3LYP) =  -343.332836151     A.U. after   15 cycles
 SCF Done:  E(RB3LYP) =  -343.344534653     A.U. after   14 cycles
 SCF Done:  E(RB3LYP) =  -343.354533777     A.U. after   14 cycles
 SCF Done:  E(RB3LYP) =  -343.362425115     A.U. after   14 cycles
 SCF Done:  E(RB3LYP) =  -343.368819824     A.U. after   14 cycles
 SCF Done:  E(RB3LYP) =  -343.374453827     A.U. after   14 cycles
 SCF Done:  E(RB3LYP) =  -343.379837283     A.U. after   14 cycles
 SCF Done:  E(RB3LYP) =  -343.385049721     A.U. after   13 cycles
 SCF Done:  E(RB3LYP) =  -343.389732523     A.U. after   13 cycles
 SCF Done:  E(RB3LYP) =  -343.404202593     A.U. after   13 cycles
 SCF Done:  E(RB3LYP) =  -343.405164929     A.U. after   13 cycles
 SCF Done:  E(RB3LYP) =  -343.406101871     A.U. after   13 cycles
 SCF Done:  E(RB3LYP) =  -343.407045833     A.U. after   13 cycles
 SCF Done:  E(RB3LYP) =  -343.407959977     A.U. after   13 cycles
 SCF Done:  E(RB3LYP) =  -343.408722599     A.U. after   13 cycles
 SCF Done:  E(RB3LYP) =  -343.408997442     A.U. after   13 cycles
 SCF Done:  E(RB3LYP) =  -343.409028092     A.U. after   12 cycles
 SCF Done:  E(RB3LYP) =  -343.409028702     A.U. after   10 cycles
 Optimization completed.
    -- Stationary point found.
 ******    1 imaginary frequencies (negative Signs) ******
    1 imaginary frequencies ignored.
 Normal termination of Gaussian 16 at Wed Dec 23 22:08:53 2020.

 ---------------------------------------------------------------------
 #N Geom=AllCheck Guess=TCheck SCRF=Check GenChk RB3LYP/6-31+G(d) Freq
 ---------------------------------------------------------------------

 Structure from the checkpoint file:  "/scratch/bell/zhao922/YARP/paper-example/KHP-network/pp_0/TS-folder/Gau-4203.chk"
 ---------
 pp_8_0 TS
 ---------
 Charge =  0 Multiplicity = 1

                         Standard orientation:
 ---------------------------------------------------------------------
 Center     Atomic      Atomic             Coordinates (Angstroms)
 Number     Number       Type             X           Y           Z
 ---------------------------------------------------------------------
      1          6           0        0.449973    1.009741    0.274703
      2          6           0       -0.729735    0.499651   -0.407321
      3          6           0       -1.778134   -0.185561    0.340186
      4          8           0        1.272943   -0.272443   -0.115044
      5          8           0        2.862731   -0.429783   -0.066394
      6          8           0       -2.871664   -0.498097   -0.109290
      7          1           0        2.906349   -1.080648    0.660047
      8          1           0        0.971709    1.856829   -0.166801
      9          1           0        0.439329    1.035794    1.364307
     10          1           0       -1.515920   -0.433824    1.394625
     11          1           0        0.414921   -0.604572   -0.778320
     12          1           0       -0.981093    0.886012   -1.393438
 ---------------------------------------------------------------------

 SCF Done:  E(RB3LYP) =  -343.409028702     A.U. after    1 cycles

 The electronic state is 1-A.
 Alpha  occ. eigenvalues --  -19.27869 -19.22398 -19.14894 -10.28507 -10.28225
 Alpha  occ. eigenvalues --  -10.22223  -1.10983  -1.04114  -0.97929  -0.79724
 Alpha  occ. eigenvalues --   -0.68351  -0.60292  -0.56678  -0.51189  -0.49002
 Alpha  occ. eigenvalues --   -0.47903  -0.46645  -0.42600  -0.41404  -0.39473
 Alpha  occ. eigenvalues --   -0.35597  -0.33322  -0.26960  -0.25939
 Alpha virt. eigenvalues --   -0.10330  -0.01506   0.00237   0.00620   0.01642
 Alpha virt. eigenvalues --    0.01991   0.04172   0.05971   0.06376   0.07434
 Alpha virt. eigenvalues --    0.09428   0.09949   0.10839   0.11461   0.12501

 Mulliken charges:
               1
     1  C   -0.323660
     2  C   -0.310239
     3  C    0.128949
     4  O   -0.213695
     5  O   -0.553858
     6  O   -0.423683
     7  H    0.454310
     8  H    0.229405
     9  H    0.222514
    10  H    0.146955
    11  H    0.406093
    12  H    0.236910
 Sum of Mulliken charges =   0.00000

 Dipole moment (field-independent basis, Debye):
    X=              3.0122    Y=              0.9356    Z=              1.6680  Tot=              3.5680
 Quadrupole moment (field-independent basis, Debye-Ang):
   XX=            -53.5498   YY=            -33.4295   ZZ=            -33.7167
   XY=             -4.6439   XZ=              2.3838   YZ=             -1.5730

  Exact polarizability: 123.351  -4.997  45.616   5.144  -0.684  45.993
 Approx polarizability: 248.428 -17.211  65.399  14.671  -0.100  64.674

 ******    1 imaginary frequencies (negative Signs) ******

                      1                      2                      3
                      A                      A                      A
 Frequencies --  -1225.5629                95.4977               125.9479
 Red. masses --      1.1743                 6.3902                 5.1933
 Frc consts  --      1.0392                 0.0343                 0.0485
 IR Inten    --    289.1076                11.2397                38.1319

                      4                      5                      6
                      A                      A                      A
 Frequencies --    176.7970               225.1105               298.6001
 Red. masses --      5.6229                 3.2234                 1.2965
 Frc consts  --      0.1036                 0.0962                 0.0681
 IR Inten    --     17.8725                69.1896                77.4399

                      7                      8                      9
                      A                      A                      A
 Frequencies --    317.7543               465.7123               496.1114
 Red. masses --      1.8672                 6.1966                 3.7214
 Frc consts  --      0.1111                 0.7918                 0.5397
 IR Inten    --     38.8005                65.8439               300.9389

                     10                     11                     12
                      A                      A                      A
 Frequencies --    594.5102               688.0016               761.4724
 Red. masses --      3.5819                 1.4153                 4.1877
 Frc consts  --      0.7459                 0.3947                 1.4306
 IR Inten    --    132.8681                35.2542                62.6037

                     13                     14                     15
                      A                      A                      A
 Frequencies --    911.3692               984.2992              1014.5158
 Red. masses --      1.3406                 1.3980                 1.6319
 Frc consts  --      0.6560                 0.7980                 0.9896
 IR Inten    --      5.9261                16.6303                 0.4666

                     16                     17                     18
                      A                      A                      A
 Frequencies --   1114.6737              1161.7866              1170.0769
 Red. masses --      1.1523                 1.2078                 1.6127
 Frc consts  --      0.8436                 0.9605                 1.3009
 IR Inten    --     21.0293                 8.2421                52.4475

                     19                     20                     21
                      A                      A                      A
 Frequencies --   1193.5679              1289.9679              1361.4770
 Red. masses --      1.7449                 1.3867                 1.5213
 Frc consts  --      1.4646                 1.3596                 1.6615
 IR Inten    --     71.8710                 7.0836                34.1018

                     22                     23                     24
                      A                      A                      A
 Frequencies --   1451.2350              1525.7667              1752.0590
 Red. masses --      1.4843                 1.2306                 8.7444
 Frc consts  --      1.8418                 1.6879                15.8154
 IR Inten    --     13.1187                 1.6266               457.7110

                     25                     26                     27
                      A                      A                      A
 Frequencies --   2087.2346              2887.8242              3134.4873
 Red. masses --      1.0576                 1.0819                 1.0565
 Frc consts  --      2.7146                 5.3158                 6.1157
 IR Inten    --     52.0765               104.1897                11.9891

                     28                     29                     30
                      A                      A                      A
 Frequencies --   3187.0530              3212.3173              3699.0940
 Red. masses --      1.0908                 1.1141                 1.0684
 Frc consts  --      6.5277                 6.7737                 8.6135
 IR Inten    --      0.3040                 5.8359                85.8035

 - Thermochemistry -
 -------------------
 Temperature   298.150 Kelvin.  Pressure   1.00000 Atm.
 Atom     1 has atomic number  6 and mass  12.00000

 Molecular mass:    90.03169 amu.
 Principal axes and moments of inertia in atomic units:
                           1         2         3
     Eigenvalues --   151.457171286.654171355.52157
           X            0.99998  -0.00386   0.00405
           Y            0.00406   0.99876  -0.04964
           Z           -0.00385   0.04966   0.99876
 This molecule is an asymmetric top.
 Rotational symmetry number  1.
 Rotational temperatures (Kelvin)      0.57187     0.06732     0.06390
 Rotational constants (GHZ):          11.91585     1.40266     1.33140
    1 imaginary frequencies ignored.
 Zero-point vibrational energy     223607.9 (Joules/Mol)
                                   53.44357 (Kcal/Mol)
 Warning -- explicit consideration of   9 degrees of freedom as
           vibrations may cause significant error
 Vibrational temperatures:    137.40   181.21   254.37   323.88   429.62
          (Kelvin)            457.18   670.06   713.79   855.37   989.88
                             1095.59  1311.26  1416.19  1459.66  1603.77
                             1671.55  1683.48  1717.28  1855.98  1958.86
                             2088.00  2195.24  2520.82  3003.07  4154.93
                             4509.83  4585.46  4621.81  5322.17

 Zero-point correction=                           0.085168 (Hartree/Particle)
 Thermal correction to Energy=                    0.092457
 Thermal correction to Enthalpy=                  0.093401
 Thermal correction to Gibbs Free Energy=         0.053923
 Sum of electronic and zero-point Energies=           -343.323861
 Sum of electronic and thermal Energies=              -343.316572
 Sum of electronic and thermal Enthalpies=            -343.315628
 Sum of electronic and thermal Free Energies=         -343.355106

                     E (Thermal)             CV                S
                      KCal/Mol        Cal/Mol-Kelvin    Cal/Mol-Kelvin
 Total                   58.018             24.672             83.089
 Electronic               0.000              0.000              0.000
 Translational            0.889              2.981             39.405
 Rotational               0.889              2.981             27.071
 Vibrational             56.240             18.711             16.613
 Vibration     1          0.603              1.952              3.544
 Vibration     2          0.611              1.927              3.007
 Vibration     3          0.628              1.871              2.362
 Vibration     4          0.650              1.803              1.918
 Vibration     5          0.692              1.676              1.425
 Vibration     6          0.704              1.640              1.322
 Vibration     7          0.823              1.326              0.750
 Vibration     8          0.852              1.259              0.668
 Vibration     9          0.952              1.043              0.459

 Optimization completed.
    -- Stationary point found.
 Normal termination of Gaussian 16 at Wed Dec 23 22:09:07 2020.
