 Gaussian 16, Revision B.01,
 Gaussian 16:  ES64L-G16RevB.01 20-Dec-2017

 --------------------------------------------------------------
 # B3LYP/6-31+G* OPT=(TS, CALCALL, NOEIGEN, maxcycles=100) Freq
 --------------------------------------------------------------

 ---------
 pp_8_1 TS
 ---------
 Symbolic Z-matrix:
 Charge =  0 Multiplicity = 1

 SCF Done:  E(RB3LYP) =  -343.302619931     A.U. after   15 cycles
 SCF Done:  E(RB3LYP) =  -343.319385881     A.U. after   14 cycles
 SCF Done:  E(RB3LYP) =  -343.338865453     A.U. after   14 cycles
 SCF Done:  E(RB3LYP) =  -343.359191463     A.U. after   15 cycles
 SCF Done:  E(RB3LYP) =  -343.379548613     A.U. after   15 cycles
 SCF Done:  E(RB3LYP) =  -343.393549110     A.U. after   15 cycles
 SCF Done:  E(RB3LYP) =  -343.402049276     A.U. after   13 cycles
 SCF Done:  E(RB3LYP) =  -343.406641541     A.U. after   14 cycles
 SCF Done:  E(RB3LYP) =  -343.408711173     A.U. after   14 cycles
 SCF Done:  E(RB3LYP) =  -343.409597450     A.U. after   13 cycles
 SCF Done:  E(RB3LYP) =  -343.409708453     A.U. after   12 cycles
 SCF Done:  E(RB3LYP) =  -343.409710595     A.U. after   11 cycles
 Optimization completed.
    -- Stationary point found.
 ******    1 imaginary frequencies (negative Signs) ******
    1 imaginary frequencies ignored.
 Normal termination of Gaussian 16 at Wed Dec 23 22:05:31 2020.

 ---------------------------------------------------------------------
 #N Geom=AllCheck Guess=TCheck SCRF=Check GenChk RB3LYP/6-31+G(d) Freq
 ---------------------------------------------------------------------

 Structure from the checkpoint file:  "/scratch/bell/zhao922/YARP/paper-example/KHP-network/pp_0/TS-folder/Gau-4547.chk"
 ---------
 pp_8_1 TS
 ---------
 Charge =  0 Multiplicity = 1

                         Standard orientation:
 ---------------------------------------------------------------------
 Center     Atomic      Atomic             Coordinates (Angstroms)
 Number     Number       Type             X           Y           Z
 ---------------------------------------------------------------------
      1          6           0        0.259226    0.599137   -0.804253
      2          6           0       -0.786246    0.914280    0.165484
      3          6           0       -1.922215    0.012477    0.330281
      4          8           0        1.250236    0.195442    0.329375
      5          8           0        2.528897   -0.706752    0.092540
      6          8           0       -2.044980   -1.079381   -0.215867
      7          1           0        3.203148   -0.046118    0.342400
      8          1           0        0.090421   -0.292655   -1.406990
      9          1           0        0.737195    1.414840   -1.342571
     10          1           0       -2.708735    0.377234    1.023476
     11          1           0       -0.882793    1.933559    0.531088
     12          1           0        0.382944    0.183303    1.055143
 ---------------------------------------------------------------------

 SCF Done:  E(RB3LYP) =  -343.409710595     A.U. after    1 cycles

 The electronic state is 1-A.
 Alpha  occ. eigenvalues --  -19.27977 -19.22692 -19.14355 -10.27704 -10.27480
 Alpha  occ. eigenvalues --  -10.21371  -1.11594  -1.03580  -0.97916  -0.78567
 Alpha  occ. eigenvalues --   -0.68502  -0.59588  -0.54215  -0.53363  -0.48771
 Alpha  occ. eigenvalues --   -0.48458  -0.44759  -0.42798  -0.40135  -0.39115
 Alpha  occ. eigenvalues --   -0.35497  -0.33431  -0.26287  -0.25464
 Alpha virt. eigenvalues --   -0.09934  -0.01022   0.00127   0.01875   0.02415
 Alpha virt. eigenvalues --    0.02744   0.04543   0.06193   0.06950   0.07155
 Alpha virt. eigenvalues --    0.09040   0.10500   0.11359   0.11884   0.12871

 Mulliken charges:
               1
     1  C   -0.330292
     2  C   -0.345449
     3  C    0.136783
     4  O   -0.176063
     5  O   -0.524311
     6  O   -0.442750
     7  H    0.457224
     8  H    0.255971
     9  H    0.216027
    10  H    0.152975
    11  H    0.209605
    12  H    0.390279
 Sum of Mulliken charges =  -0.00000

 Dipole moment (field-independent basis, Debye):
    X=              2.3247    Y=              4.0349    Z=              0.6901  Tot=              4.7076
 Quadrupole moment (field-independent basis, Debye-Ang):
   XX=            -35.8313   YY=            -39.7640   ZZ=            -34.5584
   XY=             -1.1735   XZ=             -1.2902   YZ=             -1.0256

  Exact polarizability: 108.396  -9.322  53.597  -3.236   3.371  45.450
 Approx polarizability: 196.990 -29.108  86.739  -2.104   8.562  65.097

 ******    1 imaginary frequencies (negative Signs) ******

                      1                      2                      3
                      A                      A                      A
 Frequencies --  -1232.0283                78.6573               168.8459
 Red. masses --      1.1637                 7.6601                 5.6075
 Frc consts  --      1.0407                 0.0279                 0.0942
 IR Inten    --    340.3120                 3.3814                70.6223

                      4                      5                      6
                      A                      A                      A
 Frequencies --    174.6738               255.3890               276.8766
 Red. masses --      4.3688                 2.7360                 1.6323
 Frc consts  --      0.0785                 0.1051                 0.0737
 IR Inten    --      4.7439                16.4885                79.4163

                      7                      8                      9
                      A                      A                      A
 Frequencies --    315.8627               470.0954               579.4980
 Red. masses --      1.6760                 3.9795                 4.3956
 Frc consts  --      0.0985                 0.5181                 0.8697
 IR Inten    --     42.9155               366.3660                64.4733

                     10                     11                     12
                      A                      A                      A
 Frequencies --    684.8890               712.7193               781.5777
 Red. masses --      2.5424                 2.0095                 2.6943
 Frc consts  --      0.7026                 0.6014                 0.9697
 IR Inten    --     40.0838                33.6191                65.4483

                     13                     14                     15
                      A                      A                      A
 Frequencies --    947.4918               971.2761              1014.4553
 Red. masses --      1.1320                 2.4267                 1.6444
 Frc consts  --      0.5987                 1.3488                 0.9971
 IR Inten    --     40.4994                27.6645                 0.3947

                     16                     17                     18
                      A                      A                      A
 Frequencies --   1071.9344              1133.3859              1184.6942
 Red. masses --      1.6005                 1.1559                 1.3130
 Frc consts  --      1.0836                 0.8749                 1.0858
 IR Inten    --      3.5176                17.8401                18.4215

                     19                     20                     21
                      A                      A                      A
 Frequencies --   1198.7699              1296.9019              1414.2106
 Red. masses --      1.3092                 1.3017                 1.4195
 Frc consts  --      1.1085                 1.2900                 1.6727
 IR Inten    --     70.2264                10.6210                78.3875

                     22                     23                     24
                      A                      A                      A
 Frequencies --   1431.3669              1509.2795              1730.9134
 Red. masses --      1.6252                 1.2244                 7.9273
 Frc consts  --      1.9619                 1.6433                13.9936
 IR Inten    --     80.8658                18.6684               273.2236

                     25                     26                     27
                      A                      A                      A
 Frequencies --   2094.8281              2936.5029              3140.2431
 Red. masses --      1.0572                 1.0836                 1.0552
 Frc consts  --      2.7334                 5.5054                 6.1304
 IR Inten    --     54.7210               170.3348                10.6511

                     28                     29                     30
                      A                      A                      A
 Frequencies --   3195.8411              3222.6164              3697.0280
 Red. masses --      1.0914                 1.1153                 1.0684
 Frc consts  --      6.5673                 6.8246                 8.6040
 IR Inten    --      7.0663                 3.9748                97.1288

 - Thermochemistry -
 -------------------
 Temperature   298.150 Kelvin.  Pressure   1.00000 Atm.
 Atom     1 has atomic number  6 and mass  12.00000

 Molecular mass:    90.03169 amu.
 Principal axes and moments of inertia in atomic units:
                           1         2         3
     Eigenvalues --   235.156631015.560471119.47604
           X            0.99990  -0.00790  -0.01145
           Y            0.00796   0.99996   0.00450
           Z            0.01142  -0.00459   0.99992
 This molecule is an asymmetric top.
 Rotational symmetry number  1.
 Rotational temperatures (Kelvin)      0.36832     0.08529     0.07737
 Rotational constants (GHZ):           7.67463     1.77709     1.61213
    1 imaginary frequencies ignored.
 Zero-point vibrational energy     225441.2 (Joules/Mol)
                                   53.88174 (Kcal/Mol)
 Warning -- explicit consideration of   8 degrees of freedom as
           vibrations may cause significant error
 Vibrational temperatures:    113.17   242.93   251.32   367.45   398.36
          (Kelvin)            454.46   676.36   833.77   985.40  1025.44
                             1124.52  1363.23  1397.45  1459.57  1542.27
                             1630.69  1704.51  1724.76  1865.95  2034.73
                             2059.42  2171.52  2490.40  3013.99  4224.97
                             4518.11  4598.10  4636.63  5319.20

 Zero-point correction=                           0.085866 (Hartree/Particle)
 Thermal correction to Energy=                    0.092984
 Thermal correction to Enthalpy=                  0.093928
 Thermal correction to Gibbs Free Energy=         0.054739
 Sum of electronic and zero-point Energies=           -343.323845
 Sum of electronic and thermal Energies=              -343.316727
 Sum of electronic and thermal Enthalpies=            -343.315783
 Sum of electronic and thermal Free Energies=         -343.354972

                     E (Thermal)             CV                S
                      KCal/Mol        Cal/Mol-Kelvin    Cal/Mol-Kelvin
 Total                   58.348             24.177             82.480
 Electronic               0.000              0.000              0.000
 Translational            0.889              2.981             39.405
 Rotational               0.889              2.981             27.083
 Vibrational             56.571             18.216             15.992
 Vibration     1          0.600              1.964              3.924
 Vibration     2          0.625              1.881              2.448
 Vibration     3          0.627              1.874              2.385
 Vibration     4          0.666              1.754              1.693
 Vibration     5          0.678              1.716              1.553
 Vibration     6          0.703              1.643              1.331
 Vibration     7          0.827              1.316              0.737
 Vibration     8          0.936              1.076              0.486

 Optimization completed.
    -- Stationary point found.
 Normal termination of Gaussian 16 at Wed Dec 23 22:05:47 2020.
