 Gaussian 16, Revision B.01,
 Gaussian 16:  ES64L-G16RevB.01 20-Dec-2017

 --------------------------------------------------------------
 # B3LYP/6-31+G* OPT=(TS, CALCALL, NOEIGEN, maxcycles=100) Freq
 --------------------------------------------------------------

 ---------
 pp_9_0 TS
 ---------
 Symbolic Z-matrix:
 Charge =  0 Multiplicity = 1

 SCF Done:  E(RB3LYP) =  -343.280316560     A.U. after   16 cycles
 SCF Done:  E(RB3LYP) =  -343.295108989     A.U. after   15 cycles
 SCF Done:  E(RB3LYP) =  -343.312658521     A.U. after   15 cycles
 SCF Done:  E(RB3LYP) =  -343.330704809     A.U. after   15 cycles
 SCF Done:  E(RB3LYP) =  -343.341404257     A.U. after   13 cycles
 SCF Done:  E(RB3LYP) =  -343.347664682     A.U. after   14 cycles
 SCF Done:  E(RB3LYP) =  -343.351999247     A.U. after   14 cycles
 SCF Done:  E(RB3LYP) =  -343.354926513     A.U. after   14 cycles
 SCF Done:  E(RB3LYP) =  -343.357044044     A.U. after   14 cycles
 SCF Done:  E(RB3LYP) =  -343.358209714     A.U. after   13 cycles
 SCF Done:  E(RB3LYP) =  -343.358749586     A.U. after   13 cycles
 SCF Done:  E(RB3LYP) =  -343.358965451     A.U. after   12 cycles
 SCF Done:  E(RB3LYP) =  -343.359020630     A.U. after   12 cycles
 SCF Done:  E(RB3LYP) =  -343.359024779     A.U. after   11 cycles
 Optimization completed.
    -- Stationary point found.
 ******    1 imaginary frequencies (negative Signs) ******
    1 imaginary frequencies ignored.
 Normal termination of Gaussian 16 at Wed Dec 23 22:05:54 2020.

 ---------------------------------------------------------------------
 #N Geom=AllCheck Guess=TCheck SCRF=Check GenChk RB3LYP/6-31+G(d) Freq
 ---------------------------------------------------------------------

 Structure from the checkpoint file:  "/scratch/bell/zhao922/YARP/paper-example/KHP-network/pp_0/TS-folder/Gau-3503.chk"
 ---------
 pp_9_0 TS
 ---------
 Charge =  0 Multiplicity = 1

                         Standard orientation:
 ---------------------------------------------------------------------
 Center     Atomic      Atomic             Coordinates (Angstroms)
 Number     Number       Type             X           Y           Z
 ---------------------------------------------------------------------
      1          6           0       -0.423387    1.479339   -0.459808
      2          6           0       -0.734458    0.670159    0.660501
      3          6           0       -1.193436   -0.732922    0.447929
      4          8           0        1.216121    0.117795    0.008304
      5          8           0        2.401403   -0.641290   -0.154095
      6          8           0       -1.761833   -1.100101   -0.563379
      7          1           0        3.032082   -0.189141    0.436259
      8          1           0       -0.020905    2.476483   -0.326622
      9          1           0       -0.639540    1.101671   -1.451919
     10          1           0       -0.989209   -1.416140    1.290456
     11          1           0       -0.485157    1.021852    1.656814
     12          1           0       -1.635116    1.494591    0.176644
 ---------------------------------------------------------------------

 SCF Done:  E(RB3LYP) =  -343.359024779     A.U. after    1 cycles

 The electronic state is 1-A.
 Alpha  occ. eigenvalues --  -19.19126 -19.16688 -19.16568 -10.30121 -10.27921
 Alpha  occ. eigenvalues --  -10.27799  -1.07682  -1.06223  -0.88305  -0.80508
 Alpha  occ. eigenvalues --   -0.69926  -0.59078  -0.54948  -0.51664  -0.48816
 Alpha  occ. eigenvalues --   -0.46170  -0.44930  -0.43108  -0.39510  -0.37144
 Alpha  occ. eigenvalues --   -0.35550  -0.28097  -0.24632  -0.22130
 Alpha virt. eigenvalues --   -0.09644  -0.02668  -0.00588   0.00726   0.01615
 Alpha virt. eigenvalues --    0.03493   0.05118   0.05994   0.06415   0.07525
 Alpha virt. eigenvalues --    0.08046   0.09593   0.10953   0.11858   0.14350

 Mulliken charges:
               1
     1  C   -0.480705
     2  C   -0.313594
     3  C    0.254910
     4  O   -0.223472
     5  O   -0.517883
     6  O   -0.400175
     7  H    0.445116
     8  H    0.255774
     9  H    0.300951
    10  H    0.180224
    11  H    0.256612
    12  H    0.242242
 Sum of Mulliken charges =   0.00000

 Dipole moment (field-independent basis, Debye):
    X=             -1.0481    Y=              4.4941    Z=              3.0577  Tot=              5.5358
 Quadrupole moment (field-independent basis, Debye-Ang):
   XX=            -37.2627   YY=            -33.8769   ZZ=            -34.2045
   XY=             -2.1978   XZ=              0.1229   YZ=             -2.8597

  Exact polarizability:  95.625 -10.930  59.697   0.747  -2.091  47.168
 Approx polarizability: 193.321 -36.949  90.454   1.605  -0.636  70.643

 ******    1 imaginary frequencies (negative Signs) ******

                      1                      2                      3
                      A                      A                      A
 Frequencies --  -1109.1165                59.6034               126.5882
 Red. masses --      1.5869                 5.9093                 3.4980
 Frc consts  --      1.1501                 0.0124                 0.0330
 IR Inten    --     38.7148                 0.5894                 3.2062

                      4                      5                      6
                      A                      A                      A
 Frequencies --    178.8843               248.7182               298.1556
 Red. masses --      6.1665                 2.9098                 3.0757
 Frc consts  --      0.1163                 0.1061                 0.1611
 IR Inten    --     20.4336                 7.7186                19.3724

                      7                      8                      9
                      A                      A                      A
 Frequencies --    322.1490               412.9882               480.0046
 Red. masses --      2.9109                 1.1241                 3.9728
 Frc consts  --      0.1780                 0.1130                 0.5393
 IR Inten    --     15.5230               107.5267                28.1348

                     10                     11                     12
                      A                      A                      A
 Frequencies --    574.0250               699.0206               902.2859
 Red. masses --      1.4364                 2.1544                 3.8961
 Frc consts  --      0.2789                 0.6202                 1.8688
 IR Inten    --      3.9013                 5.7264               206.7553

                     13                     14                     15
                      A                      A                      A
 Frequencies --    928.0574               940.8916               981.8981
 Red. masses --      1.8351                 2.0930                 1.4241
 Frc consts  --      0.9312                 1.0917                 0.8090
 IR Inten    --     72.0468                42.3482                 0.9325

                     16                     17                     18
                      A                      A                      A
 Frequencies --   1050.3538              1096.9316              1235.3658
 Red. masses --      1.4143                 1.2410                 1.0743
 Frc consts  --      0.9193                 0.8798                 0.9660
 IR Inten    --      0.9592                 9.5503                 5.8961

                     19                     20                     21
                      A                      A                      A
 Frequencies --   1268.6252              1354.5133              1407.9817
 Red. masses --      1.6887                 1.1121                 1.1787
 Frc consts  --      1.6013                 1.2021                 1.3768
 IR Inten    --     58.5431                19.5792                 3.6450

                     22                     23                     24
                      A                      A                      A
 Frequencies --   1423.0302              1508.3027              1762.1084
 Red. masses --      1.5357                 1.7846                 9.0385
 Frc consts  --      1.8322                 2.3920                16.5352
 IR Inten    --     48.7934                89.0647               287.8965

                     25                     26                     27
                      A                      A                      A
 Frequencies --   2023.1702              3014.6887              3206.5058
 Red. masses --      1.0609                 1.0877                 1.0510
 Frc consts  --      2.5586                 5.8245                 6.3666
 IR Inten    --      1.1421                61.6727                 6.3106

                     28                     29                     30
                      A                      A                      A
 Frequencies --   3229.3390              3324.7586              3658.5664
 Red. masses --      1.0916                 1.1233                 1.0689
 Frc consts  --      6.7074                 7.3157                 8.4298
 IR Inten    --      1.0571                 4.3102                39.3460

 - Thermochemistry -
 -------------------
 Temperature   298.150 Kelvin.  Pressure   1.00000 Atm.
 Atom     1 has atomic number  6 and mass  12.00000

 Molecular mass:    90.03169 amu.
 Principal axes and moments of inertia in atomic units:
                           1         2         3
     Eigenvalues --   354.38460 811.788351006.11861
           X            0.99975  -0.02250  -0.00001
           Y            0.02248   0.99889  -0.04137
           Z            0.00094   0.04136   0.99914
 This molecule is an asymmetric top.
 Rotational symmetry number  1.
 Rotational temperatures (Kelvin)      0.24441     0.10670     0.08609
 Rotational constants (GHZ):           5.09261     2.22317     1.79377
    1 imaginary frequencies ignored.
 Zero-point vibrational energy     225600.8 (Joules/Mol)
                                   53.91989 (Kcal/Mol)
 Warning -- explicit consideration of   9 degrees of freedom as
           vibrations may cause significant error
 Vibrational temperatures:     85.76   182.13   257.37   357.85   428.98
          (Kelvin)            463.50   594.20   690.62   825.89  1005.73
                             1298.19  1335.27  1353.73  1412.73  1511.22
                             1578.24  1777.42  1825.27  1948.84  2025.77
                             2047.42  2170.11  2535.28  2910.89  4337.46
                             4613.45  4646.30  4783.59  5263.86

 Zero-point correction=                           0.085927 (Hartree/Particle)
 Thermal correction to Energy=                    0.093282
 Thermal correction to Enthalpy=                  0.094226
 Thermal correction to Gibbs Free Energy=         0.054301
 Sum of electronic and zero-point Energies=           -343.273098
 Sum of electronic and thermal Energies=              -343.265742
 Sum of electronic and thermal Enthalpies=            -343.264798
 Sum of electronic and thermal Free Energies=         -343.304724

                     E (Thermal)             CV                S
                      KCal/Mol        Cal/Mol-Kelvin    Cal/Mol-Kelvin
 Total                   58.536             24.654             84.031
 Electronic               0.000              0.000              0.000
 Translational            0.889              2.981             39.405
 Rotational               0.889              2.981             27.162
 Vibrational             56.758             18.693             17.464
 Vibration     1          0.597              1.974              4.470
 Vibration     2          0.611              1.927              2.997
 Vibration     3          0.629              1.868              2.340
 Vibration     4          0.662              1.765              1.740
 Vibration     5          0.691              1.677              1.427
 Vibration     6          0.707              1.631              1.299
 Vibration     7          0.777              1.442              0.916
 Vibration     8          0.836              1.294              0.710
 Vibration     9          0.930              1.087              0.497

 Optimization completed.
    -- Stationary point found.
 Normal termination of Gaussian 16 at Wed Dec 23 22:06:11 2020.
