 Gaussian 16, Revision B.01,
 Gaussian 16:  ES64L-G16RevB.01 20-Dec-2017

 --------------------------------------------------------------
 # B3LYP/6-31+G* OPT=(TS, CALCALL, NOEIGEN, maxcycles=100) Freq
 --------------------------------------------------------------

 ---------
 pp_9_2 TS
 ---------
 Symbolic Z-matrix:
 Charge =  0 Multiplicity = 1

 SCF Done:  E(RB3LYP) =  -343.137787470     A.U. after   17 cycles
 SCF Done:  E(RB3LYP) =  -343.174782632     A.U. after   14 cycles
 SCF Done:  E(RB3LYP) =  -343.217385095     A.U. after   14 cycles
 SCF Done:  E(RB3LYP) =  -343.253857333     A.U. after   14 cycles
 SCF Done:  E(RB3LYP) =  -343.276848809     A.U. after   14 cycles
 SCF Done:  E(RB3LYP) =  -343.290576699     A.U. after   14 cycles
 SCF Done:  E(RB3LYP) =  -343.300136348     A.U. after   14 cycles
 SCF Done:  E(RB3LYP) =  -343.310130182     A.U. after   13 cycles
 SCF Done:  E(RB3LYP) =  -343.319995462     A.U. after   13 cycles
 SCF Done:  E(RB3LYP) =  -343.329370794     A.U. after   13 cycles
 SCF Done:  E(RB3LYP) =  -343.345359551     A.U. after   13 cycles
 SCF Done:  E(RB3LYP) =  -343.352474954     A.U. after   13 cycles
 SCF Done:  E(RB3LYP) =  -343.361762199     A.U. after   13 cycles
 SCF Done:  E(RB3LYP) =  -343.371848740     A.U. after   13 cycles
 SCF Done:  E(RB3LYP) =  -343.380713575     A.U. after   13 cycles
 SCF Done:  E(RB3LYP) =  -343.386859855     A.U. after   12 cycles
 SCF Done:  E(RB3LYP) =  -343.388819941     A.U. after   13 cycles
 SCF Done:  E(RB3LYP) =  -343.389169089     A.U. after   13 cycles
 SCF Done:  E(RB3LYP) =  -343.389178276     A.U. after   11 cycles
 Optimization completed.
    -- Stationary point found.
 ******    1 imaginary frequencies (negative Signs) ******
    1 imaginary frequencies ignored.
 Normal termination of Gaussian 16 at Wed Dec 23 22:07:25 2020.

 ---------------------------------------------------------------------
 #N Geom=AllCheck Guess=TCheck SCRF=Check GenChk RB3LYP/6-31+G(d) Freq
 ---------------------------------------------------------------------

 Structure from the checkpoint file:  "/scratch/bell/zhao922/YARP/paper-example/KHP-network/pp_0/TS-folder/Gau-3770.chk"
 ---------
 pp_9_2 TS
 ---------
 Charge =  0 Multiplicity = 1

                         Standard orientation:
 ---------------------------------------------------------------------
 Center     Atomic      Atomic             Coordinates (Angstroms)
 Number     Number       Type             X           Y           Z
 ---------------------------------------------------------------------
      1          6           0       -0.611545    0.548490    0.374278
      2          6           0        0.768975    0.474408   -0.207220
      3          6           0        1.710496   -0.540294    0.117975
      4          8           0       -1.460966   -0.291975   -0.428718
      5          8           0       -2.827934   -0.097254    0.067962
      6          8           0        2.903807   -0.087025    0.011663
      7          1           0       -3.070320   -1.020286    0.262433
      8          1           0       -0.994201    1.574914    0.334176
      9          1           0       -0.641636    0.206432    1.417563
     10          1           0        1.559999   -1.569732    0.455740
     11          1           0        2.203377    0.999025   -0.113070
     12          1           0        0.815960    0.724060   -1.274291
 ---------------------------------------------------------------------

 SCF Done:  E(RB3LYP) =  -343.389178276     A.U. after    1 cycles

 The electronic state is 1-A.
 Alpha  occ. eigenvalues --  -19.21771 -19.21588 -19.20856 -10.31456 -10.25145
 Alpha  occ. eigenvalues --  -10.20099  -1.11962  -1.09700  -0.92557  -0.77842
 Alpha  occ. eigenvalues --   -0.67003  -0.62459  -0.54260  -0.51850  -0.49370
 Alpha  occ. eigenvalues --   -0.47446  -0.45323  -0.43451  -0.41100  -0.37806
 Alpha  occ. eigenvalues --   -0.35050  -0.32539  -0.27052  -0.25008
 Alpha virt. eigenvalues --   -0.07904  -0.01234   0.00659   0.01665   0.02936
 Alpha virt. eigenvalues --    0.03227   0.04763   0.06322   0.06582   0.08390
 Alpha virt. eigenvalues --    0.09780   0.10334   0.11854   0.13247   0.14548

 Mulliken charges:
               1
     1  C   -0.380174
     2  C   -0.492435
     3  C    0.253818
     4  O   -0.153994
     5  O   -0.519105
     6  O   -0.373659
     7  H    0.465062
     8  H    0.205213
     9  H    0.180434
    10  H    0.209912
    11  H    0.343244
    12  H    0.261686
 Sum of Mulliken charges =   0.00000

 Dipole moment (field-independent basis, Debye):
    X=             -0.2032    Y=             -1.3851    Z=              1.1699  Tot=              1.8244
 Quadrupole moment (field-independent basis, Debye-Ang):
   XX=            -44.5827   YY=            -32.7059   ZZ=            -36.3549
   XY=              3.7776   XZ=             -2.6268   YZ=             -2.1320

  Exact polarizability:  83.868  -0.356  49.741  -1.348  -2.175  40.034
 Approx polarizability: 117.927  -2.189  73.302  -1.753  -3.864  55.864

 ******    1 imaginary frequencies (negative Signs) ******

                      1                      2                      3
                      A                      A                      A
 Frequencies --  -2137.4520                75.2088               111.9146
 Red. masses --      1.0965                 3.8527                 4.7598
 Frc consts  --      2.9517                 0.0128                 0.0351
 IR Inten    --    785.6386                 1.9509                21.4588

                      4                      5                      6
                      A                      A                      A
 Frequencies --    158.0063               168.7983               306.5080
 Red. masses --      1.9295                 1.7210                 2.6957
 Frc consts  --      0.0284                 0.0289                 0.1492
 IR Inten    --     33.0722                90.4144                 1.2384

                      7                      8                      9
                      A                      A                      A
 Frequencies --    371.1472               426.5323               691.9822
 Red. masses --      5.2541                 5.7927                 1.2902
 Frc consts  --      0.4264                 0.6209                 0.3640
 IR Inten    --     17.8996                 4.8010               155.2991

                     10                     11                     12
                      A                      A                      A
 Frequencies --    717.3016               893.8736               940.4949
 Red. masses --      4.2086                 8.0733                 1.6720
 Frc consts  --      1.2758                 3.8006                 0.8714
 IR Inten    --     36.0414                26.9437                 2.1827

                     13                     14                     15
                      A                      A                      A
 Frequencies --    980.7371              1010.0716              1141.8590
 Red. masses --      2.0171                 3.7556                 2.5847
 Frc consts  --      1.1431                 2.2575                 1.9856
 IR Inten    --     14.6127                42.8975                19.3822

                     16                     17                     18
                      A                      A                      A
 Frequencies --   1153.0010              1195.7805              1243.1321
 Red. masses --      1.1313                 1.3993                 1.1240
 Frc consts  --      0.8861                 1.1789                 1.0234
 IR Inten    --     67.7919                64.8249                 2.0634

                     19                     20                     21
                      A                      A                      A
 Frequencies --   1281.7399              1350.8682              1390.5716
 Red. masses --      1.3232                 1.1745                 1.3204
 Frc consts  --      1.2808                 1.2628                 1.5044
 IR Inten    --     15.1530                75.9990                 7.7845

                     22                     23                     24
                      A                      A                      A
 Frequencies --   1445.0337              1531.1646              1550.2506
 Red. masses --      2.4436                 1.1181                 3.3573
 Frc consts  --      3.0063                 1.5445                 4.7538
 IR Inten    --      6.8242                 2.8237               334.3874

                     25                     26                     27
                      A                      A                      A
 Frequencies --   1819.0026              3037.3783              3083.5007
 Red. masses --      1.1262                 1.0605                 1.0923
 Frc consts  --      2.1955                 5.7644                 6.1191
 IR Inten    --     20.3514                40.2481                22.7304

                     28                     29                     30
                      A                      A                      A
 Frequencies --   3092.8001              3152.7286              3711.2280
 Red. masses --      1.0936                 1.0935                 1.0686
 Frc consts  --      6.1632                 6.4039                 8.6716
 IR Inten    --      7.5425                14.6108                45.6756

 - Thermochemistry -
 -------------------
 Temperature   298.150 Kelvin.  Pressure   1.00000 Atm.
 Atom     1 has atomic number  6 and mass  12.00000

 Molecular mass:    90.03169 amu.
 Principal axes and moments of inertia in atomic units:
                           1         2         3
     Eigenvalues --   101.612161327.873631363.29442
           X            0.99996   0.00418  -0.00792
           Y           -0.00511   0.99263  -0.12107
           Z            0.00736   0.12110   0.99261
 This molecule is an asymmetric top.
 Rotational symmetry number  1.
 Rotational temperatures (Kelvin)      0.85240     0.06523     0.06353
 Rotational constants (GHZ):          17.76107     1.35912     1.32381
    1 imaginary frequencies ignored.
 Zero-point vibrational energy     227485.6 (Joules/Mol)
                                   54.37035 (Kcal/Mol)
 Warning -- explicit consideration of   7 degrees of freedom as
           vibrations may cause significant error
 Vibrational temperatures:    108.21   161.02   227.34   242.86   441.00
          (Kelvin)            534.00   613.68   995.61  1032.04  1286.08
                             1353.16  1411.06  1453.27  1642.88  1658.91
                             1720.46  1788.59  1844.14  1943.60  2000.72
                             2079.08  2203.00  2230.46  2617.14  4370.11
                             4436.47  4449.85  4536.07  5339.63

 Zero-point correction=                           0.086645 (Hartree/Particle)
 Thermal correction to Energy=                    0.093764
 Thermal correction to Enthalpy=                  0.094708
 Thermal correction to Gibbs Free Energy=         0.055246
 Sum of electronic and zero-point Energies=           -343.302534
 Sum of electronic and thermal Energies=              -343.295414
 Sum of electronic and thermal Enthalpies=            -343.294470
 Sum of electronic and thermal Free Energies=         -343.333932

                     E (Thermal)             CV                S
                      KCal/Mol        Cal/Mol-Kelvin    Cal/Mol-Kelvin
 Total                   58.838             23.114             83.055
 Electronic               0.000              0.000              0.000
 Translational            0.889              2.981             39.405
 Rotational               0.889              2.981             26.711
 Vibrational             57.060             17.153             16.938
 Vibration     1          0.599              1.966              4.012
 Vibration     2          0.607              1.940              3.235
 Vibration     3          0.621              1.894              2.574
 Vibration     4          0.625              1.881              2.449
 Vibration     5          0.697              1.661              1.381
 Vibration     6          0.743              1.531              1.075
 Vibration     7          0.788              1.413              0.870

 Optimization completed.
    -- Stationary point found.
 Normal termination of Gaussian 16 at Wed Dec 23 22:07:40 2020.
