 Gaussian 16, Revision B.01,
 Gaussian 16:  ES64L-G16RevB.01 20-Dec-2017

 --------------------------------------------------------------
 # B3LYP/6-31+G* OPT=(TS, CALCALL, NOEIGEN, maxcycles=100) Freq
 --------------------------------------------------------------

 ---------
 pp_9_3 TS
 ---------
 Symbolic Z-matrix:
 Charge =  0 Multiplicity = 1

 SCF Done:  E(RB3LYP) =  -343.250283894     A.U. after   19 cycles
 SCF Done:  E(RB3LYP) =  -343.275110226     A.U. after   15 cycles
 SCF Done:  E(RB3LYP) =  -343.292726398     A.U. after   15 cycles
 SCF Done:  E(RB3LYP) =  -343.318685599     A.U. after   15 cycles
 SCF Done:  E(RB3LYP) =  -343.339293915     A.U. after   14 cycles
 SCF Done:  E(RB3LYP) =  -343.355149964     A.U. after   14 cycles
 SCF Done:  E(RB3LYP) =  -343.368292879     A.U. after   14 cycles
 SCF Done:  E(RB3LYP) =  -343.380664591     A.U. after   14 cycles
 SCF Done:  E(RB3LYP) =  -343.391367222     A.U. after   14 cycles
 SCF Done:  E(RB3LYP) =  -343.399110040     A.U. after   14 cycles
 SCF Done:  E(RB3LYP) =  -343.401189841     A.U. after   15 cycles
 SCF Done:  E(RB3LYP) =  -343.401716474     A.U. after   14 cycles
 SCF Done:  E(RB3LYP) =  -343.401822723     A.U. after   13 cycles
 SCF Done:  E(RB3LYP) =  -343.401826968     A.U. after   11 cycles
 Optimization completed.
    -- Stationary point found.
 ******    1 imaginary frequencies (negative Signs) ******
    1 imaginary frequencies ignored.
 Normal termination of Gaussian 16 at Wed Dec 23 22:05:52 2020.

 ---------------------------------------------------------------------
 #N Geom=AllCheck Guess=TCheck SCRF=Check GenChk RB3LYP/6-31+G(d) Freq
 ---------------------------------------------------------------------

 Structure from the checkpoint file:  "/scratch/bell/zhao922/YARP/paper-example/KHP-network/pp_0/TS-folder/Gau-4167.chk"
 ---------
 pp_9_3 TS
 ---------
 Charge =  0 Multiplicity = 1

                         Standard orientation:
 ---------------------------------------------------------------------
 Center     Atomic      Atomic             Coordinates (Angstroms)
 Number     Number       Type             X           Y           Z
 ---------------------------------------------------------------------
      1          6           0        0.194815   -0.436708    0.249097
      2          6           0       -0.943570    1.390125   -0.016235
      3          6           0       -1.212097   -0.259022   -0.339879
      4          8           0        1.199943   -0.464230   -0.490196
      5          8           0        2.531638    0.176500    0.295355
      6          8           0       -2.187488   -0.746108    0.307007
      7          1           0        3.205521   -0.299987   -0.228034
      8          1           0        0.285066   -0.462203    1.335902
      9          1           0       -0.117393    1.829741   -0.580315
     10          1           0       -1.179640   -0.319722   -1.447198
     11          1           0       -1.903883    1.755949   -0.388909
     12          1           0       -0.877299    1.600553    1.053325
 ---------------------------------------------------------------------

 SCF Done:  E(RB3LYP) =  -343.401826968     A.U. after    1 cycles

 The electronic state is 1-A.
 Alpha  occ. eigenvalues --  -19.30062 -19.22936 -19.11169 -10.33464 -10.28781
 Alpha  occ. eigenvalues --  -10.23288  -1.16404  -1.00885  -0.99737  -0.78388
 Alpha  occ. eigenvalues --   -0.68699  -0.62185  -0.56785  -0.52873  -0.50992
 Alpha  occ. eigenvalues --   -0.45951  -0.45116  -0.42907  -0.41205  -0.40055
 Alpha  occ. eigenvalues --   -0.38777  -0.33464  -0.24845  -0.24121
 Alpha virt. eigenvalues --   -0.14529  -0.07802   0.00064   0.01738   0.01879
 Alpha virt. eigenvalues --    0.03735   0.06260   0.06621   0.07029   0.07909
 Alpha virt. eigenvalues --    0.08926   0.10671   0.11620   0.13382   0.13990

 Mulliken charges:
               1
     1  C    0.137560
     2  C   -0.634237
     3  C   -0.096879
     4  O   -0.079176
     5  O   -0.537763
     6  O   -0.458591
     7  H    0.460381
     8  H    0.259232
     9  H    0.240291
    10  H    0.200005
    11  H    0.261119
    12  H    0.248057
 Sum of Mulliken charges =   0.00000

 Dipole moment (field-independent basis, Debye):
    X=              3.5262    Y=              1.3129    Z=             -1.0396  Tot=              3.9036
 Quadrupole moment (field-independent basis, Debye-Ang):
   XX=            -42.2388   YY=            -36.3416   ZZ=            -35.4063
   XY=             -8.4517   XZ=              0.6264   YZ=              0.2947

  Exact polarizability: 129.707   0.688  51.045   1.358  -0.715  45.623
 Approx polarizability: 384.897  17.894  75.575  -4.651  -0.262  66.797

 ******    1 imaginary frequencies (negative Signs) ******

                      1                      2                      3
                      A                      A                      A
 Frequencies --   -282.9707               132.3245               135.6258
 Red. masses --      7.0318                 2.2269                 5.0971
 Frc consts  --      0.3317                 0.0230                 0.0552
 IR Inten    --    126.7813                 3.8997                39.9527

                      4                      5                      6
                      A                      A                      A
 Frequencies --    199.9450               211.4133               317.1728
 Red. masses --      1.1001                 1.6179                 5.2813
 Frc consts  --      0.0259                 0.0426                 0.3130
 IR Inten    --    130.4822                 9.7852                18.4009

                      7                      8                      9
                      A                      A                      A
 Frequencies --    336.8112               401.9564               503.8188
 Red. masses --      4.9680                 3.7084                 4.2672
 Frc consts  --      0.3321                 0.3530                 0.6382
 IR Inten    --    283.4363                 7.5985                31.8623

                     10                     11                     12
                      A                      A                      A
 Frequencies --    511.6233               547.7282               799.0040
 Red. masses --      3.7961                 4.4087                 1.5919
 Frc consts  --      0.5855                 0.7793                 0.5988
 IR Inten    --     16.5075               164.2670                26.3815

                     13                     14                     15
                      A                      A                      A
 Frequencies --    967.8168               994.8886              1023.3962
 Red. masses --      1.5203                 1.3799                 1.7262
 Frc consts  --      0.8390                 0.8047                 1.0652
 IR Inten    --     35.9541                 0.2129                50.2641

                     16                     17                     18
                      A                      A                      A
 Frequencies --   1128.7140              1158.5805              1293.6181
 Red. masses --      1.2267                 1.2049                 1.2135
 Frc consts  --      0.9208                 0.9529                 1.1965
 IR Inten    --    159.3169                 0.3815                 7.2243

                     19                     20                     21
                      A                      A                      A
 Frequencies --   1330.2924              1354.8558              1466.0509
 Red. masses --      1.2118                 1.2883                 3.5623
 Frc consts  --      1.2635                 1.3933                 4.5110
 IR Inten    --     56.1593                 2.9576               154.4999

                     22                     23                     24
                      A                      A                      A
 Frequencies --   1474.7107              1478.8019              1500.5995
 Red. masses --      1.7489                 1.1227                 1.9378
 Frc consts  --      2.2409                 1.4466                 2.5709
 IR Inten    --     44.0384                19.0308                20.1372

                     25                     26                     27
                      A                      A                      A
 Frequencies --   2919.2256              3066.5266              3163.3830
 Red. masses --      1.0815                 1.0266                 1.1057
 Frc consts  --      5.4301                 5.6879                 6.5191
 IR Inten    --     84.8750                 6.2509                 6.1968

                     28                     29                     30
                      A                      A                      A
 Frequencies --   3178.0960              3186.1522              3700.9736
 Red. masses --      1.0961                 1.1043                 1.0683
 Frc consts  --      6.5229                 6.6048                 8.6213
 IR Inten    --      2.3979                 6.1840               141.9106

 - Thermochemistry -
 -------------------
 Temperature   298.150 Kelvin.  Pressure   1.00000 Atm.
 Atom     1 has atomic number  6 and mass  12.00000

 Molecular mass:    90.03169 amu.
 Principal axes and moments of inertia in atomic units:
                           1         2         3
     Eigenvalues --   223.92509 934.697181055.46242
           X            0.99958  -0.02837   0.00542
           Y            0.02840   0.99958  -0.00547
           Z           -0.00526   0.00562   0.99997
 This molecule is an asymmetric top.
 Rotational symmetry number  1.
 Rotational temperatures (Kelvin)      0.38680     0.09267     0.08206
 Rotational constants (GHZ):           8.05958     1.93083     1.70991
    1 imaginary frequencies ignored.
 Zero-point vibrational energy     230186.1 (Joules/Mol)
                                   55.01579 (Kcal/Mol)
 Warning -- explicit consideration of  10 degrees of freedom as
           vibrations may cause significant error
 Vibrational temperatures:    190.39   195.14   287.68   304.18   456.34
          (Kelvin)            484.60   578.33   724.88   736.11   788.06
                             1149.59  1392.47  1431.42  1472.44  1623.97
                             1666.94  1861.23  1913.99  1949.34  2109.32
                             2121.78  2127.67  2159.03  4200.11  4412.05
                             4551.40  4572.57  4584.16  5324.88

 Zero-point correction=                           0.087673 (Hartree/Particle)
 Thermal correction to Energy=                    0.094949
 Thermal correction to Enthalpy=                  0.095893
 Thermal correction to Gibbs Free Energy=         0.056790
 Sum of electronic and zero-point Energies=           -343.314154
 Sum of electronic and thermal Energies=              -343.306878
 Sum of electronic and thermal Enthalpies=            -343.305934
 Sum of electronic and thermal Free Energies=         -343.345037

                     E (Thermal)             CV                S
                      KCal/Mol        Cal/Mol-Kelvin    Cal/Mol-Kelvin
 Total                   59.581             24.805             82.299
 Electronic               0.000              0.000              0.000
 Translational            0.889              2.981             39.405
 Rotational               0.889              2.981             26.893
 Vibrational             57.804             18.843             16.001
 Vibration     1          0.612              1.921              2.912
 Vibration     2          0.613              1.918              2.865
 Vibration     3          0.638              1.840              2.134
 Vibration     4          0.643              1.823              2.031
 Vibration     5          0.704              1.641              1.325
 Vibration     6          0.718              1.602              1.227
 Vibration     7          0.768              1.466              0.955
 Vibration     8          0.859              1.242              0.649
 Vibration     9          0.867              1.224              0.630
 Vibration    10          0.903              1.145              0.549

 Optimization completed.
    -- Stationary point found.
 Normal termination of Gaussian 16 at Wed Dec 23 22:06:09 2020.
