 Gaussian 16, Revision B.01,
 Gaussian 16:  ES64L-G16RevB.01 20-Dec-2017

 --------------------------------------------------------------
 # B3LYP/6-31+G* OPT=(TS, CALCALL, NOEIGEN, maxcycles=100) Freq
 --------------------------------------------------------------

 ---------
 pp_9_1 TS
 ---------
 Symbolic Z-matrix:
 Charge =  0 Multiplicity = 1

 SCF Done:  E(RB3LYP) =  -343.223825674     A.U. after   16 cycles
 SCF Done:  E(RB3LYP) =  -343.247748654     A.U. after   14 cycles
 SCF Done:  E(RB3LYP) =  -343.267671315     A.U. after   14 cycles
 SCF Done:  E(RB3LYP) =  -343.283928786     A.U. after   14 cycles
 SCF Done:  E(RB3LYP) =  -343.298704589     A.U. after   14 cycles
 SCF Done:  E(RB3LYP) =  -343.314008168     A.U. after   13 cycles
 SCF Done:  E(RB3LYP) =  -343.329146044     A.U. after   13 cycles
 SCF Done:  E(RB3LYP) =  -343.343757633     A.U. after   14 cycles
 SCF Done:  E(RB3LYP) =  -343.357211936     A.U. after   13 cycles
 SCF Done:  E(RB3LYP) =  -343.368877287     A.U. after   13 cycles
 SCF Done:  E(RB3LYP) =  -343.378359718     A.U. after   14 cycles
 SCF Done:  E(RB3LYP) =  -343.385478116     A.U. after   14 cycles
 SCF Done:  E(RB3LYP) =  -343.390082974     A.U. after   14 cycles
 SCF Done:  E(RB3LYP) =  -343.391847547     A.U. after   14 cycles
 SCF Done:  E(RB3LYP) =  -343.392510729     A.U. after   14 cycles
 SCF Done:  E(RB3LYP) =  -343.392726640     A.U. after   13 cycles
 SCF Done:  E(RB3LYP) =  -343.392769650     A.U. after   12 cycles
 SCF Done:  E(RB3LYP) =  -343.392774865     A.U. after   11 cycles
 SCF Done:  E(RB3LYP) =  -343.392774942     A.U. after    8 cycles
 Optimization completed.
    -- Stationary point found.
 ******    1 imaginary frequencies (negative Signs) ******
    1 imaginary frequencies ignored.
 Normal termination of Gaussian 16 at Wed Dec 23 22:07:24 2020.

 ---------------------------------------------------------------------
 #N Geom=AllCheck Guess=TCheck SCRF=Check GenChk RB3LYP/6-31+G(d) Freq
 ---------------------------------------------------------------------

 Structure from the checkpoint file:  "/scratch/bell/zhao922/YARP/paper-example/KHP-network/pp_0/TS-folder/Gau-3213.chk"
 ---------
 pp_9_1 TS
 ---------
 Charge =  0 Multiplicity = 1

                         Standard orientation:
 ---------------------------------------------------------------------
 Center     Atomic      Atomic             Coordinates (Angstroms)
 Number     Number       Type             X           Y           Z
 ---------------------------------------------------------------------
      1          6           0       -1.928067   -0.844490    0.380356
      2          6           0       -0.194567   -0.286698   -0.657603
      3          6           0        0.837438   -1.074495    0.007172
      4          8           0       -0.223909    0.967626   -0.824352
      5          8           0       -0.004738    1.788679    0.596484
      6          8           0        1.959144   -0.637029    0.214543
      7          1           0        0.969954    1.843270    0.548758
      8          1           0       -2.858777   -0.603879   -0.138312
      9          1           0       -1.875515   -1.871291    0.737841
     10          1           0        0.564595   -2.122535    0.239300
     11          1           0       -1.675931   -0.097183    1.127985
     12          1           0       -1.257126   -0.868500   -0.788523
 ---------------------------------------------------------------------

 SCF Done:  E(RB3LYP) =  -343.392774942     A.U. after    1 cycles

 The electronic state is 1-A.
 Alpha  occ. eigenvalues --  -19.25874 -19.19001 -19.17231 -10.30273 -10.29704
 Alpha  occ. eigenvalues --  -10.25913  -1.12305  -1.06185  -0.96167  -0.79442
 Alpha  occ. eigenvalues --   -0.71173  -0.59051  -0.54791  -0.52119  -0.49758
 Alpha  occ. eigenvalues --   -0.47480  -0.45682  -0.44658  -0.43487  -0.39819
 Alpha  occ. eigenvalues --   -0.35681  -0.30662  -0.28460  -0.25491
 Alpha virt. eigenvalues --   -0.09651  -0.08146  -0.00935   0.01729   0.02530
 Alpha virt. eigenvalues --    0.03088   0.04141   0.06327   0.06662   0.06941
 Alpha virt. eigenvalues --    0.08431   0.08779   0.09907   0.11888   0.13468

 Mulliken charges:
               1
     1  C   -0.797744
     2  C   -0.010944
     3  C    0.213237
     4  O   -0.116409
     5  O   -0.560823
     6  O   -0.434337
     7  H    0.465640
     8  H    0.255535
     9  H    0.245902
    10  H    0.159255
    11  H    0.305631
    12  H    0.275058
 Sum of Mulliken charges =   0.00000

 Dipole moment (field-independent basis, Debye):
    X=             -3.1865    Y=             -2.9967    Z=              0.2341  Tot=              4.3805
 Quadrupole moment (field-independent basis, Debye-Ang):
   XX=            -36.7075   YY=            -36.5436   ZZ=            -38.0131
   XY=              6.3829   XZ=             -0.1635   YZ=             -0.0420

  Exact polarizability:  78.456   8.721  74.023  -1.412   4.819  45.483
 Approx polarizability: 128.839  21.472 129.839  -1.071  16.303  76.065

 ******    1 imaginary frequencies (negative Signs) ******

                      1                      2                      3
                      A                      A                      A
 Frequencies --  -1036.4902                82.9964               125.7566
 Red. masses --      1.4735                 4.0382                 1.0385
 Frc consts  --      0.9327                 0.0164                 0.0097
 IR Inten    --     53.6279                 5.8338                 1.2080

                      4                      5                      6
                      A                      A                      A
 Frequencies --    163.2720               172.8589               270.4513
 Red. masses --      3.6986                 3.9460                 1.6898
 Frc consts  --      0.0581                 0.0695                 0.0728
 IR Inten    --      2.2971                 2.9702               110.7626

                      7                      8                      9
                      A                      A                      A
 Frequencies --    307.0949               337.0697               361.5545
 Red. masses --      1.9331                 7.0196                 4.1777
 Frc consts  --      0.1074                 0.4699                 0.3218
 IR Inten    --     46.2014                49.9557                79.3851

                     10                     11                     12
                      A                      A                      A
 Frequencies --    494.8058               635.0695               734.1072
 Red. masses --      7.4550                 4.2082                 1.3185
 Frc consts  --      1.0754                 1.0000                 0.4186
 IR Inten    --    103.6791                23.6186                 8.8453

                     13                     14                     15
                      A                      A                      A
 Frequencies --    823.0775               930.8005               989.5297
 Red. masses --      2.4386                 2.0170                 1.7151
 Frc consts  --      0.9734                 1.0296                 0.9895
 IR Inten    --     32.3290                54.6897                 3.5960

                     16                     17                     18
                      A                      A                      A
 Frequencies --   1057.3621              1131.1753              1241.1025
 Red. masses --      2.0060                 1.1379                 1.1350
 Frc consts  --      1.3214                 0.8579                 1.0301
 IR Inten    --     43.4007                65.5953                26.9875

                     19                     20                     21
                      A                      A                      A
 Frequencies --   1282.6958              1415.7933              1452.6637
 Red. masses --      1.1152                 1.2498                 1.0831
 Frc consts  --      1.0811                 1.4760                 1.3466
 IR Inten    --     20.1134                 3.6970                17.9887

                     22                     23                     24
                      A                      A                      A
 Frequencies --   1487.7948              1509.1868              1736.0398
 Red. masses --      2.3499                 1.4574                 8.8181
 Frc consts  --      3.0647                 1.9557                15.6583
 IR Inten    --    149.8494                70.5392               234.5563

                     25                     26                     27
                      A                      A                      A
 Frequencies --   2207.3030              2968.2416              3097.4031
 Red. masses --      1.0589                 1.0857                 1.0242
 Frc consts  --      3.0396                 5.6359                 5.7893
 IR Inten    --     12.0246                71.0716                 2.9762

                     28                     29                     30
                      A                      A                      A
 Frequencies --   3218.1098              3252.8752              3691.1734
 Red. masses --      1.1074                 1.1126                 1.0679
 Frc consts  --      6.7572                 6.9364                 8.5724
 IR Inten    --      1.2435                 1.2356                64.8264

 - Thermochemistry -
 -------------------
 Temperature   298.150 Kelvin.  Pressure   1.00000 Atm.
 Atom     1 has atomic number  6 and mass  12.00000

 Molecular mass:    90.03169 amu.
 Principal axes and moments of inertia in atomic units:
                           1         2         3
     Eigenvalues --   476.81593 577.70509 861.61427
           X            0.96372   0.26661  -0.01283
           Y           -0.26668   0.96377  -0.00465
           Z            0.01113   0.00791   0.99991
 This molecule is an asymmetric top.
 Rotational symmetry number  1.
 Warning -- assumption of classical behavior for rotation
           may cause significant error
 Rotational temperatures (Kelvin)      0.18165     0.14993     0.10053
 Rotational constants (GHZ):           3.78499     3.12398     2.09460
    1 imaginary frequencies ignored.
 Zero-point vibrational energy     222370.0 (Joules/Mol)
                                   53.14771 (Kcal/Mol)
 Warning -- explicit consideration of   9 degrees of freedom as
           vibrations may cause significant error
 Vibrational temperatures:    119.41   180.94   234.91   248.71   389.12
          (Kelvin)            441.84   484.97   520.20   711.92   913.72
                             1056.22  1184.22  1339.21  1423.71  1521.31
                             1627.51  1785.67  1845.51  2037.01  2090.06
                             2140.60  2171.38  2497.77  3175.82  4270.64
                             4456.47  4630.14  4680.16  5310.78

 Zero-point correction=                           0.084696 (Hartree/Particle)
 Thermal correction to Energy=                    0.092533
 Thermal correction to Enthalpy=                  0.093477
 Thermal correction to Gibbs Free Energy=         0.052890
 Sum of electronic and zero-point Energies=           -343.308079
 Sum of electronic and thermal Energies=              -343.300242
 Sum of electronic and thermal Enthalpies=            -343.299298
 Sum of electronic and thermal Free Energies=         -343.339885

                     E (Thermal)             CV                S
                      KCal/Mol        Cal/Mol-Kelvin    Cal/Mol-Kelvin
 Total                   58.065             25.887             85.423
 Electronic               0.000              0.000              0.000
 Translational            0.889              2.981             39.405
 Rotational               0.889              2.981             26.965
 Vibrational             56.288             19.926             19.053
 Vibration     1          0.600              1.961              3.819
 Vibration     2          0.611              1.927              3.010
 Vibration     3          0.623              1.888              2.512
 Vibration     4          0.626              1.876              2.404
 Vibration     5          0.674              1.728              1.593
 Vibration     6          0.697              1.660              1.378
 Vibration     7          0.718              1.601              1.226
 Vibration     8          0.736              1.551              1.115
 Vibration     9          0.850              1.262              0.671

 Optimization completed.
    -- Stationary point found.
 Normal termination of Gaussian 16 at Wed Dec 23 22:07:40 2020.
