   * xtb version 6.4.0 (d4b70c2) compiled by 'ehlert@majestix' on 2021-02-01
          program call               : xtb -c 0 -u 0 -a 1.0 --iterations 100 --opt normal --namespace AEIQXSQWMRMDNM-AHCXZYCDSA-N /home/zhao922/bin/Github/YARP/version2.0/CONF_GEN/RCS_paper/IC/opt-folder/AEIQXSQWMRMDNM-AHCXZYCDSA-N.xyz
          number of atoms            :                    48
          number of electrons        :                   120
          charge                     :                     0
          spin                       :                   0.0

   ID    Z sym.   atoms
    1   14 Si     1
    2    6 C      2, 6, 10, 15, 16, 19, 20, 22-25, 27, 28, 31, 38, 39, 41, 42
    3    1 H      3-5, 7-9, 12-14, 17, 18, 29, 30, 32-37, 40, 43-48
    4    8 O      11, 21, 26

          :  Hamiltonian                  GFN2-xTB          :
 * total energy  :   -65.7751995 Eh     change       -0.2450051E-08 Eh
   *** GEOMETRY OPTIMIZATION CONVERGED AFTER 1 ITERATIONS ***

 final structure:
================
48
 xtb: 6.4.0 (d4b70c2)
Si        1.98834684000000   -2.41309215000000    0.21535227000000
C         3.69543235000000   -1.78101122000000    0.75959846000000
H         4.50289725000000   -2.38068885000000    0.35256487000000
H         3.79839934000000   -1.78297668000000    1.84132827000000
H         3.83424882000000   -0.75671213000000    0.42357468000000
C         1.46200990000000   -3.94373627000000    1.23013712000000
H         2.03186170000000   -4.81927946000000    0.93642186000000
H         0.41048588000000   -4.17358381000000    1.08042700000000
H         1.61618110000000   -3.80217419000000    2.29629707000000
C         1.89132149000000   -2.79476112000000   -1.64381996000000
O         0.86680812000000   -1.20996670000000    0.34632770000000
H         2.58894130000000   -3.58184835000000   -1.90863747000000
H         2.13977650000000   -1.91997696000000   -2.23645028000000
H         0.89963333000000   -3.12393087000000   -1.93957462000000
C         0.64747820000000   -0.25467491000000    1.27451233000000
C         0.67844561000000   -0.45952529000000    2.58289876000000
H         0.89596959000000   -1.43149493000000    2.98392257000000
H         0.49986584000000    0.33880241000000    3.27740073000000
C         0.38155323000000    1.07116021000000    0.65214629000000
C         1.50576317000000    1.62974401000000   -0.17162692000000
O         1.01329721000000    2.34820914000000   -1.19207106000000
C        -0.61862206000000    2.04563047000000    1.23992887000000
C        -1.94435442000000    0.45108385000000   -0.44526209000000
C        -3.06358594000000    0.34744987000000    0.26205632000000
C        -1.62981325000000   -0.45197861000000   -1.60637436000000
O         2.67908677000000    1.44477315000000   -0.01087980000000
C        -4.12762928000000   -0.66895850000000   -0.00797586000000
C        -2.86952732000000   -1.19486664000000   -2.09297688000000
H        -0.86684630000000   -1.16527550000000   -1.28114674000000
H        -1.19356558000000    0.12975126000000   -2.42229759000000
C        -3.60973273000000   -1.79161386000000   -0.90199685000000
H        -4.97877589000000   -0.17293247000000   -0.48767170000000
H        -4.48864583000000   -1.07494726000000    0.94046650000000
H        -2.57863339000000   -1.97903469000000   -2.79411664000000
H        -3.53187950000000   -0.50209094000000   -2.61729005000000
H        -4.44038836000000   -2.41452173000000   -1.23886943000000
H        -2.92177245000000   -2.41987360000000   -0.33288599000000
C        -0.36001652000000    3.53494699000000    1.09058745000000
C        -0.89131102000000    1.42807887000000   -0.09824717000000
H        -1.14108183000000    1.70238486000000    2.12035809000000
C        -0.40191979000000    2.49570439000000   -1.08557481000000
C        -0.69881963000000    3.82252820000000   -0.38068083000000
H        -1.75805066000000    4.05459367000000   -0.49229951000000
H        -0.10824268000000    4.63432200000000   -0.80157531000000
H         0.68282465000000    3.77740411000000    1.30386513000000
H        -0.98741342000000    4.11237886000000    1.76813161000000
H        -0.81995078000000    2.43168606000000   -2.09082099000000
H        -3.25205595000000    1.02629726000000    1.08273459000000

          :  Hamiltonian                  GFN2-xTB          :
         :: total energy             -65.775199451869 Eh    ::
         :: gradient norm              0.000125445428 Eh/a0 ::
         :: HOMO-LUMO gap              3.929011149968 eV    ::
         :: SCC energy               -66.667999415912 Eh    ::
         :: -> dispersion             -0.051629103191 Eh    ::
         :: repulsion energy           0.891289573569 Eh    ::

    * Orbital Energies and Occupations

         #    Occupation            Energy/Eh            Energy/eV
      -------------------------------------------------------------
         1        2.0000           -0.7655206             -20.8309
       ...           ...                  ...                  ...
        48        2.0000           -0.4467629             -12.1570
        49        2.0000           -0.4455679             -12.1245
        50        2.0000           -0.4412805             -12.0079
        51        2.0000           -0.4365217             -11.8784
        52        2.0000           -0.4318120             -11.7502
        53        2.0000           -0.4262323             -11.5984
        54        2.0000           -0.4210232             -11.4566
        55        2.0000           -0.4125889             -11.2271
        56        2.0000           -0.4118888             -11.2081
        57        2.0000           -0.3959840             -10.7753
        58        2.0000           -0.3884399             -10.5700
        59        2.0000           -0.3846450             -10.4667
        60        2.0000           -0.3783613             -10.2957 (HOMO)
        61                         -0.2339728              -6.3667 (LUMO)
        62                         -0.2100862              -5.7167
        63                         -0.1965265              -5.3478
        64                         -0.1294525              -3.5226
        65                         -0.1123422              -3.0570
        66                         -0.0980114              -2.6670
        67                         -0.0771448              -2.0992
        68                          0.0026889               0.0732
        69                          0.0131181               0.3570
        70                          0.0308889               0.8405
        71                          0.0408709               1.1122
       ...                                ...                  ...
       119                          0.7608659              20.7042
      -------------------------------------------------------------
                  HL-Gap            0.1443885 Eh            3.9290 eV

     #   Z          covCN         q      C6AA      α(0)
     1  14 Si       3.438     0.554   102.419    19.765
     2   6 C        3.650    -0.211    25.050     7.190
     3   1 H        0.925     0.035     2.512     2.479
     4   1 H        0.925     0.036     2.499     2.472
     5   1 H        0.925     0.060     2.196     2.317
     6   6 C        3.648    -0.207    24.991     7.183
     7   1 H        0.925     0.031     2.573     2.508
     8   1 H        0.925     0.037     2.496     2.471
     9   1 H        0.925     0.032     2.553     2.499
    10   6 C        3.650    -0.205    24.929     7.172
    11   8 O        1.625    -0.350    19.921     6.024
    12   1 H        0.925     0.023     2.689     2.565
    13   1 H        0.925     0.040     2.450     2.448
    14   1 H        0.925     0.036     2.509     2.477
    15   6 C        2.861     0.147    24.810     8.164
    16   6 C        2.839    -0.141    31.613     9.214
    17   1 H        0.926     0.048     2.342     2.393
    18   1 H        0.926     0.047     2.354     2.399
    19   6 C        3.937    -0.025    20.954     6.505
    20   6 C        2.769     0.364    20.829     7.475
    21   8 O        1.706    -0.262    18.337     5.782
    22   6 C        3.893    -0.025    20.958     6.508
    23   6 C        2.944    -0.005    28.144     8.701
    24   6 C        2.900    -0.048    29.185     8.858
    25   6 C        3.812    -0.063    21.700     6.631
    26   8 O        0.856    -0.392    21.521     6.220
    27   6 C        3.809    -0.054    21.540     6.606
    28   6 C        3.807    -0.056    21.567     6.611
    29   1 H        0.924     0.064     2.151     2.294
    30   1 H        0.924     0.034     2.529     2.487
    31   6 C        3.807    -0.057    21.597     6.616
    32   1 H        0.924     0.041     2.433     2.439
    33   1 H        0.924     0.038     2.474     2.460
    34   1 H        0.924     0.031     2.569     2.506
    35   1 H        0.924     0.033     2.546     2.495
    36   1 H        0.924     0.030     2.593     2.518
    37   1 H        0.924     0.037     2.486     2.465
    38   6 C        3.819    -0.060    21.634     6.619
    39   6 C        3.950    -0.001    20.537     6.440
    40   1 H        0.926     0.049     2.335     2.389
    41   6 C        3.843     0.108    18.787     6.166
    42   6 C        3.826    -0.069    21.793     6.643
    43   1 H        0.925     0.048     2.340     2.392
    44   1 H        0.925     0.057     2.229     2.335
    45   1 H        0.924     0.047     2.354     2.399
    46   1 H        0.925     0.046     2.373     2.409
    47   1 H        0.924     0.050     2.314     2.379
    48   1 H        0.925     0.025     2.659     2.550

Wiberg/Mayer (AO) data.
largest (>0.10) Wiberg bond orders for each atom

     #   Z sym  total        # sym  WBO       # sym  WBO       # sym  WBO
 ---------------------------------------------------------------------------
     1  14 Si   3.792 --    11 O    1.023     2 C    0.900     6 C    0.885
                            10 C    0.882
     2   6 C    3.983 --     3 H    0.991     4 H    0.985     5 H    0.979
                             1 Si   0.900
     3   1 H    0.999 --     2 C    0.991
     4   1 H    0.999 --     2 C    0.985
     5   1 H    0.996 --     2 C    0.979
     6   6 C    3.980 --     7 H    0.993     9 H    0.987     8 H    0.986
                             1 Si   0.885
     7   1 H    0.999 --     6 C    0.993
     8   1 H    0.999 --     6 C    0.986
     9   1 H    0.999 --     6 C    0.987
    10   6 C    3.981 --    12 H    0.997    13 H    0.988    14 H    0.987
                             1 Si   0.882
    11   8 O    2.327 --    15 C    1.057     1 Si   1.023
    12   1 H    0.999 --    10 C    0.997
    13   1 H    0.998 --    10 C    0.988
    14   1 H    0.999 --    10 C    0.987
    15   6 C    3.937 --    16 C    1.844    11 O    1.057    19 C    0.988
    16   6 C    3.978 --    15 C    1.844    18 H    0.975    17 H    0.974
    17   1 H    0.997 --    16 C    0.974
    18   1 H    0.997 --    16 C    0.975
    19   6 C    3.941 --    15 C    0.988    20 C    0.962    22 C    0.911
                            39 C    0.875
    20   6 C    3.920 --    26 O    1.755    21 O    1.116    19 C    0.962
    21   8 O    2.307 --    20 C    1.116    41 C    0.940    26 O    0.158
    22   6 C    3.944 --    38 C    1.002    40 H    0.967    39 C    0.953
                            19 C    0.911
    23   6 C    3.984 --    24 C    1.860    39 C    1.014    25 C    1.006
    24   6 C    3.986 --    23 C    1.860    27 C    1.026    48 H    0.965
    25   6 C    3.996 --    28 C    1.007    23 C    1.006    30 H    0.965
                            29 H    0.951
    26   8 O    2.054 --    20 C    1.755    21 O    0.158
    27   6 C    3.998 --    24 C    1.026    31 C    1.007    33 H    0.967
                            32 H    0.957
    28   6 C    3.998 --    31 C    1.009    25 C    1.007    35 H    0.978
                            34 H    0.978
    29   1 H    0.996 --    25 C    0.951
    30   1 H    0.999 --    25 C    0.965
    31   6 C    3.998 --    28 C    1.009    27 C    1.007    36 H    0.978
                            37 H    0.978
    32   1 H    0.996 --    27 C    0.957
    33   1 H    0.997 --    27 C    0.967
    34   1 H    0.998 --    28 C    0.978
    35   1 H    0.999 --    28 C    0.978
    36   1 H    0.999 --    31 C    0.978
    37   1 H    0.999 --    31 C    0.978
    38   6 C    3.995 --    22 C    1.002    42 C    1.002    46 H    0.979
                            45 H    0.975
    39   6 C    3.937 --    23 C    1.014    41 C    0.956    22 C    0.953
                            19 C    0.875
    40   1 H    0.998 --    22 C    0.967
    41   6 C    3.930 --    42 C    0.985    47 H    0.963    39 C    0.956
                            21 O    0.940
    42   6 C    3.993 --    38 C    1.002    41 C    0.985    43 H    0.977
                            44 H    0.976
    43   1 H    0.998 --    42 C    0.977
    44   1 H    0.995 --    42 C    0.976
    45   1 H    0.997 --    38 C    0.975
    46   1 H    0.998 --    38 C    0.979
    47   1 H    0.997 --    41 C    0.963
    48   1 H    0.999 --    24 C    0.965
 ---------------------------------------------------------------------------

molecular dipole:
                 x           y           z       tot (Debye)
 q only:       -1.602      -0.031       0.233
   full:       -1.699       0.005       0.282       4.377

           -------------------------------------------------
          | TOTAL ENERGY              -65.775199451869 Eh   |
          | GRADIENT NORM               0.000125445428 Eh/α |
          | HOMO-LUMO GAP               3.929011149968 eV   |
           -------------------------------------------------

 * finished run on 2021/09/05 at 21:28:15.038
