   * xtb version 6.4.0 (d4b70c2) compiled by 'ehlert@majestix' on 2021-02-01
          program call               : xtb -c 0 -u 0 -a 1.0 --iterations 100 --opt normal --namespace GJHOZCDQAWFERI-PNPHSEOMSA-N /home/zhao922/bin/Github/YARP/version2.0/CONF_GEN/RCS_paper/IC/opt-folder/GJHOZCDQAWFERI-PNPHSEOMSA-N.xyz
          number of atoms            :                    48
          number of electrons        :                   120
          charge                     :                     0
          spin                       :                   0.0

   ID    Z sym.   atoms
    1   14 Si     1
    2    6 C      2, 6, 10, 15, 16, 19, 20, 22-25, 27, 28, 31, 38, 39, 41, 42
    3    1 H      3-5, 7-9, 12-14, 17, 18, 29, 30, 32-37, 40, 43-48
    4    8 O      11, 21, 26

          :  Hamiltonian                  GFN2-xTB          :
 * total energy  :   -65.8100506 Eh     change       -0.4165344E-09 Eh
   *** GEOMETRY OPTIMIZATION CONVERGED AFTER 1 ITERATIONS ***

 final structure:
================
48
 xtb: 6.4.0 (d4b70c2)
Si        3.34244924000000    0.95784894000000   -0.14561896000000
C         4.08061852000000    2.55117111000000   -0.90134674000000
H         5.16368490000000    2.49751111000000   -0.93534314000000
H         3.81470722000000    3.42586591000000   -0.31635424000000
H         3.72965158000000    2.72126834000000   -1.91473431000000
C         4.03861792000000    0.79961443000000    1.61628504000000
H         5.12200783000000    0.85926993000000    1.59938070000000
H         3.76021100000000   -0.13824608000000    2.08139221000000
H         3.67486826000000    1.60835731000000    2.24430408000000
C         3.68319478000000   -0.45297575000000   -1.38004527000000
O         2.11110183000000   -1.30397947000000    0.91881010000000
H         4.65865441000000   -0.33487740000000   -1.84126465000000
H         2.94125431000000   -0.45693506000000   -2.17457090000000
H         3.65626332000000   -1.42320451000000   -0.89802948000000
C         0.91160799000000   -1.31078804000000    0.70342539000000
C        -0.03710770000000   -2.43378107000000    1.09809830000000
H         0.05367030000000   -3.23939665000000    0.36721717000000
H         0.22301041000000   -2.84040407000000    2.07468690000000
C         0.12751100000000   -0.28895980000000    0.07457051000000
C         0.53214469000000    0.97316976000000   -0.21903679000000
O         1.74253290000000    1.44742179000000   -0.11091204000000
C        -3.21976026000000    0.74315894000000    0.82645446000000
C        -1.31208654000000   -0.74662344000000   -0.06799836000000
C        -1.42882576000000   -1.79329729000000    1.06036513000000
C        -1.51013580000000   -1.39420321000000   -1.45453114000000
O        -0.30503738000000    1.93901428000000   -0.64520062000000
C        -2.58627459000000   -2.77964175000000    0.91130235000000
C        -2.79107261000000   -2.21629586000000   -1.50998037000000
H        -0.65666747000000   -2.04245315000000   -1.66360065000000
H        -1.52376717000000   -0.61608469000000   -2.21991592000000
C        -2.71195320000000   -3.35099960000000   -0.49639742000000
H        -3.51820419000000   -2.26605386000000    1.15626292000000
H        -2.45561574000000   -3.58859116000000    1.63376832000000
H        -2.92613480000000   -2.61855121000000   -2.51600118000000
H        -3.64701222000000   -1.57731176000000   -1.28100006000000
H        -3.60627828000000   -3.97441694000000   -0.55515687000000
H        -1.85286410000000   -3.98385919000000   -0.72760216000000
C        -3.66011582000000    2.17056938000000    0.69453032000000
C        -2.15818989000000    0.47034112000000    0.08301066000000
H        -3.75167012000000    0.05110047000000    1.45447031000000
C        -1.70727325000000    1.69066522000000   -0.68509095000000
C        -2.47978814000000    2.84374522000000   -0.02297323000000
H        -2.79486504000000    3.59535579000000   -0.74263923000000
H        -1.81560009000000    3.31767315000000    0.69977594000000
H        -3.87267709000000    2.62376901000000    1.66338754000000
H        -4.57213768000000    2.22953473000000    0.09416139000000
H        -1.97679438000000    1.59412563000000   -1.74780344000000
H        -1.56676127000000   -1.24582723000000    2.00006337000000

          :  Hamiltonian                  GFN2-xTB          :
         :: total energy             -65.810050610497 Eh    ::
         :: gradient norm              0.000111764267 Eh/a0 ::
         :: HOMO-LUMO gap              3.232472434788 eV    ::
         :: SCC energy               -66.680490976600 Eh    ::
         :: -> dispersion             -0.053176373737 Eh    ::
         :: repulsion energy           0.869414434884 Eh    ::

    * Orbital Energies and Occupations

         #    Occupation            Energy/Eh            Energy/eV
      -------------------------------------------------------------
         1        2.0000           -0.7639328             -20.7877
       ...           ...                  ...                  ...
        48        2.0000           -0.4456593             -12.1270
        49        2.0000           -0.4428068             -12.0494
        50        2.0000           -0.4400402             -11.9741
        51        2.0000           -0.4397400             -11.9659
        52        2.0000           -0.4371154             -11.8945
        53        2.0000           -0.4288416             -11.6694
        54        2.0000           -0.4208549             -11.4520
        55        2.0000           -0.4147442             -11.2858
        56        2.0000           -0.3956976             -10.7675
        57        2.0000           -0.3884437             -10.5701
        58        2.0000           -0.3804377             -10.3522
        59        2.0000           -0.3736962             -10.1688
        60        2.0000           -0.3698339             -10.0637 (HOMO)
        61                         -0.2510427              -6.8312 (LUMO)
        62                         -0.2145832              -5.8391
        63                         -0.1486773              -4.0457
        64                         -0.1269362              -3.4541
        65                         -0.1082246              -2.9449
        66                         -0.0771822              -2.1002
        67                          0.0019303               0.0525
        68                          0.0192337               0.5234
        69                          0.0331421               0.9018
        70                          0.0398150               1.0834
        71                          0.0434077               1.1812
       ...                                ...                  ...
       119                          0.7612838              20.7156
      -------------------------------------------------------------
                  HL-Gap            0.1187912 Eh            3.2325 eV

     #   Z          covCN         q      C6AA      α(0)
     1  14 Si       3.419     0.568   103.436    19.938
     2   6 C        3.648    -0.212    25.085     7.196
     3   1 H        0.925     0.021     2.712     2.575
     4   1 H        0.925     0.037     2.484     2.465
     5   1 H        0.925     0.036     2.507     2.476
     6   6 C        3.650    -0.204    24.901     7.168
     7   1 H        0.925     0.033     2.549     2.496
     8   1 H        0.925     0.066     2.135     2.285
     9   1 H        0.925     0.042     2.428     2.437
    10   6 C        3.649    -0.202    24.856     7.162
    11   8 O        0.859    -0.410    21.873     6.271
    12   1 H        0.925     0.036     2.507     2.476
    13   1 H        0.925     0.033     2.543     2.494
    14   1 H        0.925     0.057     2.239     2.340
    15   6 C        2.841     0.223    23.316     7.913
    16   6 C        3.835    -0.086    22.119     6.691
    17   1 H        0.924     0.059     2.205     2.322
    18   1 H        0.925     0.052     2.295     2.369
    19   6 C        3.000    -0.120    31.044     9.140
    20   6 C        2.740     0.301    21.892     7.661
    21   8 O        1.625    -0.320    19.380     5.942
    22   6 C        2.941    -0.049    29.219     8.865
    23   6 C        3.935     0.019    20.190     6.385
    24   6 C        3.886    -0.022    20.915     6.502
    25   6 C        3.812    -0.056    21.579     6.612
    26   8 O        1.704    -0.262    18.347     5.783
    27   6 C        3.805    -0.059    21.628     6.621
    28   6 C        3.806    -0.056    21.581     6.613
    29   1 H        0.924     0.039     2.463     2.454
    30   1 H        0.924     0.027     2.632     2.537
    31   6 C        3.805    -0.056    21.580     6.613
    32   1 H        0.924     0.034     2.536     2.490
    33   1 H        0.924     0.035     2.512     2.478
    34   1 H        0.924     0.032     2.561     2.502
    35   1 H        0.924     0.034     2.531     2.488
    36   1 H        0.924     0.031     2.573     2.508
    37   1 H        0.924     0.034     2.529     2.487
    38   6 C        3.841    -0.061    21.645     6.618
    39   6 C        3.003    -0.020    28.490     8.756
    40   1 H        0.926     0.039     2.461     2.453
    41   6 C        3.786     0.111    18.782     6.173
    42   6 C        3.835    -0.069    21.800     6.643
    43   1 H        0.925     0.046     2.374     2.409
    44   1 H        0.925     0.058     2.221     2.331
    45   1 H        0.924     0.047     2.361     2.403
    46   1 H        0.924     0.046     2.370     2.408
    47   1 H        0.923     0.039     2.457     2.451
    48   1 H        0.924     0.032     2.565     2.504

Wiberg/Mayer (AO) data.
largest (>0.10) Wiberg bond orders for each atom

     #   Z sym  total        # sym  WBO       # sym  WBO       # sym  WBO
 ---------------------------------------------------------------------------
     1  14 Si   3.752 --    21 O    0.905     6 C    0.894    10 C    0.891
                             2 C    0.879
     2   6 C    3.978 --     3 H    0.997     4 H    0.988     5 H    0.987
                             1 Si   0.879
     3   1 H    0.999 --     2 C    0.997
     4   1 H    0.999 --     2 C    0.988
     5   1 H    0.999 --     2 C    0.987
     6   6 C    3.986 --     7 H    0.993     9 H    0.983     8 H    0.982
                             1 Si   0.894
     7   1 H    0.999 --     6 C    0.993
     8   1 H    0.996 --     6 C    0.982
     9   1 H    0.998 --     6 C    0.983
    10   6 C    3.986 --    12 H    0.992    13 H    0.985    14 H    0.985
                             1 Si   0.891
    11   8 O    2.073 --    15 C    1.703
    12   1 H    0.999 --    10 C    0.992
    13   1 H    0.999 --    10 C    0.985
    14   1 H    0.997 --    10 C    0.985
    15   6 C    3.942 --    11 O    1.703    19 C    1.153    16 C    0.972
    16   6 C    3.996 --    24 C    0.995    15 C    0.972    18 H    0.968
                            17 H    0.949
    17   1 H    0.996 --    16 C    0.949
    18   1 H    0.996 --    16 C    0.968
    19   6 C    3.947 --    20 C    1.489    15 C    1.153    23 C    0.963
    20   6 C    3.910 --    19 C    1.489    21 O    1.168    26 O    1.092
    21   8 O    2.363 --    20 C    1.168     1 Si   0.905
    22   6 C    3.986 --    39 C    1.876    38 C    1.022    40 H    0.966
    23   6 C    3.990 --    39 C    1.002    24 C    0.963    19 C    0.963
                            25 C    0.957
    24   6 C    3.993 --    27 C    0.999    16 C    0.995    48 H    0.968
                            23 C    0.963
    25   6 C    3.995 --    28 C    1.008    30 H    0.974    29 H    0.974
                            23 C    0.957
    26   8 O    2.281 --    20 C    1.092    41 C    0.935
    27   6 C    3.997 --    31 C    1.009    24 C    0.999    33 H    0.975
                            32 H    0.974
    28   6 C    3.997 --    31 C    1.009    25 C    1.008    35 H    0.976
                            34 H    0.976
    29   1 H    0.998 --    25 C    0.974
    30   1 H    0.999 --    25 C    0.974
    31   6 C    3.998 --    28 C    1.009    27 C    1.009    36 H    0.977
                            37 H    0.975
    32   1 H    0.999 --    27 C    0.974
    33   1 H    0.998 --    27 C    0.975
    34   1 H    0.998 --    28 C    0.976
    35   1 H    0.999 --    28 C    0.976
    36   1 H    0.999 --    31 C    0.977
    37   1 H    0.999 --    31 C    0.975
    38   6 C    3.996 --    22 C    1.022    42 C    1.001    45 H    0.970
                            46 H    0.961
    39   6 C    3.983 --    22 C    1.876    23 C    1.002    41 C    0.983
    40   1 H    0.998 --    22 C    0.966
    41   6 C    3.928 --    42 C    0.984    39 C    0.983    47 H    0.946
                            26 O    0.935
    42   6 C    3.991 --    38 C    1.001    41 C    0.984    43 H    0.981
                            44 H    0.977
    43   1 H    0.998 --    42 C    0.981
    44   1 H    0.997 --    42 C    0.977
    45   1 H    0.997 --    38 C    0.970
    46   1 H    0.997 --    38 C    0.961
    47   1 H    0.997 --    41 C    0.946
    48   1 H    0.999 --    24 C    0.968
 ---------------------------------------------------------------------------

molecular dipole:
                 x           y           z       tot (Debye)
 q only:       -1.295      -0.074      -0.190
   full:       -1.594      -0.124      -0.252       4.113

           -------------------------------------------------
          | TOTAL ENERGY              -65.810050610497 Eh   |
          | GRADIENT NORM               0.000111764267 Eh/α |
          | HOMO-LUMO GAP               3.232472434788 eV   |
           -------------------------------------------------

 * finished run on 2021/09/05 at 21:28:20.720
