   * xtb version 6.4.0 (d4b70c2) compiled by 'ehlert@majestix' on 2021-02-01
          program call               : xtb -c 0 -u 0 -a 1.0 --iterations 100 --opt normal --namespace QZGFHLHPPYCBHI-CORIIIEPSA-N /home/zhao922/bin/Github/YARP/version2.0/CONF_GEN/RCS_paper/IC/opt-folder/QZGFHLHPPYCBHI-CORIIIEPSA-N.xyz
          number of atoms            :                    48
          number of electrons        :                   120
          charge                     :                     0
          spin                       :                   0.0

   ID    Z sym.   atoms
    1   14 Si     1
    2    6 C      2, 6, 10, 15, 16, 19, 20, 22-25, 27, 28, 31, 38, 39, 41, 42
    3    1 H      3-5, 7-9, 12-14, 17, 18, 29, 30, 32-37, 40, 43-48
    4    8 O      11, 21, 26

          :  Hamiltonian                  GFN2-xTB          :
 * total energy  :   -65.7373414 Eh     change       -0.1446580E-08 Eh
 * total energy  :   -65.7608025 Eh     change       -0.2346114E-01 Eh
 * total energy  :   -65.7664249 Eh     change       -0.5622347E-02 Eh
 * total energy  :   -65.7678560 Eh     change       -0.1431101E-02 Eh
 * total energy  :   -65.7687181 Eh     change       -0.8621585E-03 Eh
 * total energy  :   -65.7691219 Eh     change       -0.4037504E-03 Eh
 * total energy  :   -65.7693438 Eh     change       -0.2219371E-03 Eh
 * total energy  :   -65.7694473 Eh     change       -0.1034523E-03 Eh
 * total energy  :   -65.7695079 Eh     change       -0.6060483E-04 Eh
 * total energy  :   -65.7695647 Eh     change       -0.5681050E-04 Eh
 * total energy  :   -65.7712002 Eh     change       -0.2612361E-04 Eh
 * total energy  :   -65.7712083 Eh     change       -0.8008489E-05 Eh
 * total energy  :   -65.7712234 Eh     change       -0.1510315E-04 Eh
 * total energy  :   -65.7712309 Eh     change       -0.7550731E-05 Eh
 * total energy  :   -65.7712382 Eh     change       -0.7301112E-05 Eh
 * total energy  :   -65.7712454 Eh     change       -0.7240177E-05 Eh
 * total energy  :   -65.7712513 Eh     change       -0.5885746E-05 Eh
 * total energy  :   -65.7712547 Eh     change       -0.3339793E-05 Eh
 * total energy  :   -65.7712581 Eh     change       -0.3376988E-05 Eh
   *** GEOMETRY OPTIMIZATION CONVERGED AFTER 55 ITERATIONS ***

 final structure:
================
48
 xtb: 6.4.0 (d4b70c2)
Si       -3.13868775657088    0.82625261942046    0.21343786508459
C        -3.65712209009346    2.55706713092185   -0.39198361839686
H        -2.81073691857423    3.23740564409322   -0.41962838851876
H        -4.41272296197740    2.99291019250449    0.25359125267095
H        -4.07168203389169    2.50917666131219   -1.39542273893731
C        -4.55925696986072   -0.42633703862972    0.17022060312723
H        -5.08641907580226   -0.39385992267730   -0.77805860371142
H        -5.28011672446269   -0.22858724990004    0.95666459243069
H        -4.18375757971113   -1.43681522945168    0.29833815206373
C        -2.30461375034447    0.93222357056127    1.92517502286393
O        -1.06047594198108   -2.36806892573589   -0.92098844161668
H        -1.47058903294137    1.62894578694702    1.91820302460444
H        -1.92318984069921   -0.04110539499763    2.22362371089644
H        -2.99990746773348    1.26048340702050    2.69105436199321
C        -0.02039348335007   -1.76468088550912   -1.09789840268894
C         1.28290563893190   -2.38413654025557   -0.56502846645581
H         0.94406817094197   -3.07076157034101    0.21467214440826
H         1.68354055295022   -3.00180148516409   -1.37373465273153
C         0.06456808740026   -0.42362829599342   -1.65048039350557
C        -0.85273662647560    0.45890265942121   -1.14155069317049
O        -2.08630189049102    0.12577437071177   -0.87591593722756
C         1.42072816727686    0.17861159862495   -1.97121386138892
C         1.99333572384100   -0.12911487250680    0.42200349564775
C         2.44593570221681   -1.51154432239628   -0.00003488071896
C         1.76800777381900    0.20864782426848    1.86746717188185
O        -0.52336311898102    1.71462012067620   -0.76593277708730
C         3.18774820228521   -2.27536635389310    1.10583799537027
C         2.63890327927635   -0.58845916158060    2.83197047891870
H         0.71697741210688   -0.01587830245338    2.08691023677913
H         1.90993171155427    1.28011898445731    2.02504576193725
C         2.56722914617532   -2.06843670615458    2.48046080781443
H         4.22164859637706   -1.92207261952333    1.14195382804494
H         3.21427226311805   -3.33708998516480    0.85288361381625
H         2.29598389057273   -0.41777317370512    3.85434239162025
H         3.67544647643746   -0.25002708764887    2.76478990138288
H         3.10800950333866   -2.66078160126389    3.22102012916163
H         1.52577426981313   -2.39607790288350    2.47981243729853
C         1.35038761880404    1.40952907523045   -2.88695515186047
C         1.65152869383775    0.68860484779632   -0.57437203891178
H         2.10431919238836   -0.57367660817966   -2.35094932364610
C         0.89398598082496    1.98462960157444   -0.61993615855804
C         1.37344180012847    2.61028317268912   -1.92846857619882
H         2.38519020040915    2.99524955514347   -1.79990943525708
H         0.72161064191197    3.42109037705699   -2.24818906636371
H         0.43124008992692    1.39532957045983   -3.47319120538350
H         2.19279293449829    1.43477852583998   -3.57693658222836
H         0.97999774371008    2.63078450216842    0.25448356194666
H         3.16782379906564   -1.37144856288904   -0.81218314720503

          :  Hamiltonian                  GFN2-xTB          :
         :: total energy             -65.771258051239 Eh    ::
         :: gradient norm              0.000775301638 Eh/a0 ::
         :: HOMO-LUMO gap              3.032799733166 eV    ::
         :: SCC energy               -66.630535957308 Eh    ::
         :: -> dispersion             -0.053920692842 Eh    ::
         :: repulsion energy           0.857736656018 Eh    ::

    * Orbital Energies and Occupations

         #    Occupation            Energy/Eh            Energy/eV
      -------------------------------------------------------------
         1        2.0000           -0.7774400             -21.1552
       ...           ...                  ...                  ...
        48        2.0000           -0.4498246             -12.2403
        49        2.0000           -0.4456377             -12.1264
        50        2.0000           -0.4452099             -12.1148
        51        2.0000           -0.4374839             -11.9045
        52        2.0000           -0.4342084             -11.8154
        53        2.0000           -0.4307420             -11.7211
        54        2.0000           -0.4210256             -11.4567
        55        2.0000           -0.4132282             -11.2445
        56        2.0000           -0.3991113             -10.8604
        57        2.0000           -0.3950833             -10.7508
        58        2.0000           -0.3910986             -10.6423
        59        2.0000           -0.3697616             -10.0617
        60        2.0000           -0.3514907              -9.5645 (HOMO)
        61                         -0.2400374              -6.5317 (LUMO)
        62                         -0.2139681              -5.8224
        63                         -0.1789852              -4.8704
        64                         -0.1358363              -3.6963
        65                         -0.1149009              -3.1266
        66                         -0.1033431              -2.8121
        67                         -0.0026358              -0.0717
        68                          0.0157627               0.4289
        69                          0.0230200               0.6264
        70                          0.0256442               0.6978
        71                          0.0453039               1.2328
       ...                                ...                  ...
       119                          0.7248678              19.7247
      -------------------------------------------------------------
                  HL-Gap            0.1114533 Eh            3.0328 eV

     #   Z          covCN         q      C6AA      α(0)
     1  14 Si       3.475     0.566    99.977    19.408
     2   6 C        3.649    -0.208    24.989     7.182
     3   1 H        0.925     0.049     2.332     2.388
     4   1 H        0.925     0.036     2.506     2.476
     5   1 H        0.925     0.044     2.396     2.421
     6   6 C        3.651    -0.209    25.011     7.183
     7   1 H        0.925     0.047     2.359     2.402
     8   1 H        0.925     0.029     2.599     2.521
     9   1 H        0.925     0.061     2.193     2.316
    10   6 C        3.648    -0.204    24.903     7.169
    11   8 O        0.858    -0.404    21.756     6.254
    12   1 H        0.925     0.040     2.451     2.448
    13   1 H        0.925     0.040     2.449     2.447
    14   1 H        0.925     0.037     2.495     2.470
    15   6 C        2.833     0.224    23.289     7.908
    16   6 C        3.800    -0.089    22.193     6.708
    17   1 H        0.924     0.065     2.145     2.290
    18   1 H        0.924     0.052     2.290     2.366
    19   6 C        3.064    -0.103    30.534     9.061
    20   6 C        2.829     0.296    21.990     7.684
    21   8 O        1.625    -0.313    19.249     5.922
    22   6 C        3.925    -0.018    20.835     6.487
    23   6 C        2.945    -0.012    28.325     8.729
    24   6 C        3.862    -0.019    20.866     6.496
    25   6 C        3.809    -0.054    21.540     6.606
    26   8 O        1.701    -0.292    18.859     5.863
    27   6 C        3.808    -0.059    21.626     6.620
    28   6 C        3.807    -0.054    21.539     6.607
    29   1 H        0.924     0.044     2.398     2.421
    30   1 H        0.924     0.031     2.570     2.507
    31   6 C        3.806    -0.055    21.557     6.610
    32   1 H        0.924     0.033     2.540     2.492
    33   1 H        0.924     0.034     2.534     2.490
    34   1 H        0.924     0.029     2.599     2.521
    35   1 H        0.924     0.033     2.544     2.494
    36   1 H        0.924     0.029     2.597     2.520
    37   1 H        0.924     0.038     2.479     2.462
    38   6 C        3.829    -0.060    21.636     6.618
    39   6 C        3.113    -0.042    28.889     8.805
    40   1 H        0.925     0.043     2.413     2.429
    41   6 C        3.811     0.113    18.728     6.160
    42   6 C        3.835    -0.065    21.714     6.630
    43   1 H        0.925     0.042     2.423     2.434
    44   1 H        0.925     0.047     2.357     2.401
    45   1 H        0.924     0.043     2.412     2.429
    46   1 H        0.925     0.038     2.481     2.463
    47   1 H        0.924     0.041     2.431     2.438
    48   1 H        0.924     0.037     2.487     2.466

Wiberg/Mayer (AO) data.
largest (>0.10) Wiberg bond orders for each atom

     #   Z sym  total        # sym  WBO       # sym  WBO       # sym  WBO
 ---------------------------------------------------------------------------
     1  14 Si   3.741 --    21 O    0.913     6 C    0.900     2 C    0.899
                            10 C    0.895
     2   6 C    3.983 --     4 H    0.992     3 H    0.983     5 H    0.982
                             1 Si   0.899
     3   1 H    0.998 --     2 C    0.983
     4   1 H    0.998 --     2 C    0.992
     5   1 H    0.998 --     2 C    0.982
     6   6 C    3.984 --     8 H    0.996     7 H    0.984     9 H    0.981
                             1 Si   0.900
     7   1 H    0.998 --     6 C    0.984
     8   1 H    0.999 --     6 C    0.996
     9   1 H    0.996 --     6 C    0.981
    10   6 C    3.983 --    14 H    0.991    12 H    0.985    13 H    0.983
                             1 Si   0.895
    11   8 O    2.043 --    15 C    1.753
    12   1 H    0.998 --    10 C    0.985
    13   1 H    0.998 --    10 C    0.983
    14   1 H    0.998 --    10 C    0.991
    15   6 C    3.942 --    11 O    1.753    19 C    1.102    16 C    0.958
    16   6 C    3.989 --    17 H    0.967    24 C    0.966    15 C    0.958
                            18 H    0.954
    17   1 H    0.996 --    16 C    0.967
    18   1 H    0.997 --    16 C    0.954
    19   6 C    3.914 --    20 C    1.467    15 C    1.102    22 C    0.959
    20   6 C    3.911 --    19 C    1.467    21 O    1.174    26 O    1.082
    21   8 O    2.372 --    20 C    1.174     1 Si   0.913
    22   6 C    3.991 --    38 C    0.993    39 C    0.975    40 H    0.962
                            19 C    0.959
    23   6 C    3.982 --    39 C    1.807    25 C    1.012    24 C    0.998
    24   6 C    3.994 --    23 C    0.998    27 C    0.994    16 C    0.966
                            48 H    0.958
    25   6 C    3.998 --    23 C    1.012    28 C    1.005    30 H    0.970
                            29 H    0.952
    26   8 O    2.247 --    20 C    1.082    41 C    0.910
    27   6 C    3.996 --    31 C    1.010    24 C    0.994    32 H    0.977
                            33 H    0.976
    28   6 C    3.997 --    31 C    1.009    25 C    1.005    34 H    0.978
                            35 H    0.977
    29   1 H    0.998 --    25 C    0.952
    30   1 H    0.999 --    25 C    0.970
    31   6 C    3.998 --    27 C    1.010    28 C    1.009    36 H    0.977
                            37 H    0.975
    32   1 H    0.998 --    27 C    0.977
    33   1 H    0.998 --    27 C    0.976
    34   1 H    0.999 --    28 C    0.978
    35   1 H    0.999 --    28 C    0.977
    36   1 H    0.999 --    31 C    0.977
    37   1 H    0.999 --    31 C    0.975
    38   6 C    3.996 --    42 C    1.002    22 C    0.993    46 H    0.982
                            45 H    0.979
    39   6 C    3.965 --    23 C    1.807    41 C    0.990    22 C    0.975
    40   1 H    0.998 --    22 C    0.962
    41   6 C    3.928 --    39 C    0.990    42 C    0.989    47 H    0.960
                            26 O    0.910
    42   6 C    3.994 --    38 C    1.002    41 C    0.989    44 H    0.978
                            43 H    0.977
    43   1 H    0.998 --    42 C    0.977
    44   1 H    0.997 --    42 C    0.978
    45   1 H    0.998 --    38 C    0.979
    46   1 H    0.998 --    38 C    0.982
    47   1 H    0.998 --    41 C    0.960
    48   1 H    0.998 --    24 C    0.958
 ---------------------------------------------------------------------------

molecular dipole:
                 x           y           z       tot (Debye)
 q only:        0.762       1.148       0.529
   full:        1.035       1.269       0.520       4.368

           -------------------------------------------------
          | TOTAL ENERGY              -65.771258051239 Eh   |
          | GRADIENT NORM               0.000775301638 Eh/α |
          | HOMO-LUMO GAP               3.032799733166 eV   |
           -------------------------------------------------

 * finished run on 2021/09/05 at 21:28:19.107
