   * xtb version 6.4.0 (d4b70c2) compiled by 'ehlert@majestix' on 2021-02-01
          program call               : xtb -c 0 -u 0 -a 1.0 --iterations 100 --opt normal --namespace YZQIKWUVHPSPML-FPMFFAJLSA-N /home/zhao922/bin/Github/YARP/version2.0/CONF_GEN/RCS_paper/IC/opt-folder/YZQIKWUVHPSPML-FPMFFAJLSA-N.xyz
          number of atoms            :                    48
          number of electrons        :                   120
          charge                     :                     0
          spin                       :                   0.0

   ID    Z sym.   atoms
    1   14 Si     1
    2    6 C      2, 6, 10, 15, 16, 19, 20, 22-25, 27, 28, 31, 38, 39, 41, 42
    3    1 H      3-5, 7-9, 12-14, 17, 18, 29, 30, 32-37, 40, 43-48
    4    8 O      11, 21, 26

          :  Hamiltonian                  GFN2-xTB          :
 * total energy  :   -65.7834683 Eh     change       -0.6191669E-09 Eh
   *** GEOMETRY OPTIMIZATION CONVERGED AFTER 1 ITERATIONS ***

 final structure:
================
48
 xtb: 6.4.0 (d4b70c2)
Si       -3.01639102000000    0.77173916000000   -0.36449216000000
C        -2.67447390000000    1.07532995000000   -2.20973423000000
H        -1.96724673000000    1.88858528000000   -2.35255435000000
H        -3.58694799000000    1.33933351000000   -2.73479936000000
H        -2.26378569000000    0.18830042000000   -2.67945174000000
C        -4.05249809000000   -0.77750659000000    0.00870939000000
H        -4.10371324000000   -0.96777199000000    1.07784903000000
H        -3.62230413000000   -1.65110366000000   -0.46745056000000
H        -5.06866284000000   -0.66584302000000   -0.35529136000000
C        -3.87666064000000    2.31173749000000    0.36502148000000
O        -1.61576456000000    0.81993463000000    0.52071798000000
H        -4.09592226000000    2.19065050000000    1.42136175000000
H        -4.81566280000000    2.50055361000000   -0.14353660000000
H        -3.26361797000000    3.20134190000000    0.25904123000000
C        -0.65551922000000    0.04620464000000    1.01045066000000
C         0.16189476000000    0.70620287000000    2.09527543000000
H        -0.39663453000000    1.56852374000000    2.46140077000000
H         0.31848661000000    0.03756298000000    2.93947225000000
C        -0.24384436000000   -1.15460334000000    0.54492394000000
C        -0.39516326000000   -1.55240700000000   -0.86601936000000
O         0.76254728000000   -1.77482941000000   -1.53479520000000
C         0.99110764000000   -1.74733149000000    1.18249175000000
C         2.21024682000000    0.35394210000000    0.48862318000000
C         1.52508033000000    1.22757338000000    1.53158896000000
C         3.25581158000000    1.02403075000000   -0.36406983000000
O        -1.42738444000000   -1.60122024000000   -1.48789112000000
C         1.21077345000000    2.61122291000000    0.92486098000000
C         2.81157063000000    2.36075858000000   -0.94458509000000
H         3.56970103000000    0.35228402000000   -1.16237860000000
H         4.12952750000000    1.20226753000000    0.27438665000000
C         2.37683340000000    3.26283707000000    0.19816518000000
H         0.87110078000000    3.26888927000000    1.72827898000000
H         0.38314728000000    2.49108583000000    0.22193787000000
H         1.97684601000000    2.20530401000000   -1.63092103000000
H         3.63381588000000    2.81002441000000   -1.50496424000000
H         3.21206552000000    3.41506395000000    0.88632276000000
H         2.06938989000000    4.23997689000000   -0.17945263000000
C         1.21447054000000   -3.23218526000000    0.85360563000000
C         1.96017349000000   -0.94974397000000    0.34967540000000
H         1.04684807000000   -1.57429812000000    2.25086031000000
C         2.04309800000000   -1.82662978000000   -0.87194738000000
C         2.21813348000000   -3.23208487000000   -0.30684665000000
H         3.24111300000000   -3.35613821000000    0.04871055000000
H         2.00411372000000   -3.99486124000000   -1.05301434000000
H         0.27539923000000   -3.70153225000000    0.55735660000000
H         1.60092192000000   -3.77116731000000    1.71752852000000
H         2.76786768000000   -1.55615770000000   -1.63954776000000
H         2.20500146000000    1.36410480000000    2.38127980000000

          :  Hamiltonian                  GFN2-xTB          :
         :: total energy             -65.783468261682 Eh    ::
         :: gradient norm              0.000029064452 Eh/a0 ::
         :: HOMO-LUMO gap              3.055412697602 eV    ::
         :: SCC energy               -66.648152543578 Eh    ::
         :: -> dispersion             -0.054160221132 Eh    ::
         :: repulsion energy           0.863109471724 Eh    ::

    * Orbital Energies and Occupations

         #    Occupation            Energy/Eh            Energy/eV
      -------------------------------------------------------------
         1        2.0000           -0.7619731             -20.7343
       ...           ...                  ...                  ...
        48        2.0000           -0.4466701             -12.1545
        49        2.0000           -0.4416867             -12.0189
        50        2.0000           -0.4403255             -11.9819
        51        2.0000           -0.4367164             -11.8837
        52        2.0000           -0.4280786             -11.6486
        53        2.0000           -0.4267950             -11.6137
        54        2.0000           -0.4249340             -11.5630
        55        2.0000           -0.4205553             -11.4439
        56        2.0000           -0.4038095             -10.9882
        57        2.0000           -0.3963157             -10.7843
        58        2.0000           -0.3848394             -10.4720
        59        2.0000           -0.3787316             -10.3058
        60        2.0000           -0.3567303              -9.7071 (HOMO)
        61                         -0.2444460              -6.6517 (LUMO)
        62                         -0.2178333              -5.9275
        63                         -0.1846347              -5.0242
        64                         -0.1257072              -3.4207
        65                         -0.1054698              -2.8700
        66                         -0.0842161              -2.2916
        67                          0.0026860               0.0731
        68                          0.0131408               0.3576
        69                          0.0272620               0.7418
        70                          0.0314199               0.8550
        71                          0.0406543               1.1063
       ...                                ...                  ...
       119                          0.7774419              21.1553
      -------------------------------------------------------------
                  HL-Gap            0.1122844 Eh            3.0554 eV

     #   Z          covCN         q      C6AA      α(0)
     1  14 Si       3.414     0.557   104.121    20.025
     2   6 C        3.650    -0.206    24.946     7.175
     3   1 H        0.925     0.034     2.526     2.486
     4   1 H        0.925     0.032     2.563     2.504
     5   1 H        0.925     0.062     2.174     2.306
     6   6 C        3.650    -0.207    24.967     7.178
     7   1 H        0.925     0.034     2.532     2.488
     8   1 H        0.925     0.059     2.208     2.324
     9   1 H        0.925     0.035     2.523     2.484
    10   6 C        3.649    -0.209    25.024     7.187
    11   8 O        1.624    -0.325    19.470     5.956
    12   1 H        0.925     0.032     2.563     2.504
    13   1 H        0.925     0.020     2.730     2.584
    14   1 H        0.925     0.033     2.547     2.496
    15   6 C        2.851     0.151    24.729     8.150
    16   6 C        3.811    -0.078    21.974     6.672
    17   1 H        0.924     0.063     2.168     2.303
    18   1 H        0.925     0.049     2.337     2.391
    19   6 C        3.063    -0.089    30.168     9.007
    20   6 C        2.706     0.361    20.878     7.479
    21   8 O        1.702    -0.273    18.535     5.813
    22   6 C        3.929    -0.019    20.857     6.490
    23   6 C        2.942    -0.010    28.272     8.721
    24   6 C        3.850    -0.017    20.844     6.494
    25   6 C        3.814    -0.059    21.630     6.620
    26   8 O        0.857    -0.410    21.883     6.272
    27   6 C        3.813    -0.059    21.624     6.619
    28   6 C        3.807    -0.053    21.529     6.605
    29   1 H        0.925     0.035     2.521     2.483
    30   1 H        0.924     0.043     2.414     2.430
    31   6 C        3.807    -0.056    21.574     6.612
    32   1 H        0.924     0.032     2.551     2.498
    33   1 H        0.924     0.046     2.371     2.408
    34   1 H        0.924     0.037     2.487     2.466
    35   1 H        0.924     0.031     2.571     2.508
    36   1 H        0.924     0.033     2.550     2.497
    37   1 H        0.924     0.032     2.553     2.499
    38   6 C        3.830    -0.059    21.616     6.615
    39   6 C        3.088    -0.033    28.715     8.784
    40   1 H        0.925     0.042     2.423     2.434
    41   6 C        3.804     0.114    18.716     6.159
    42   6 C        3.829    -0.065    21.720     6.631
    43   1 H        0.925     0.042     2.428     2.437
    44   1 H        0.925     0.051     2.310     2.377
    45   1 H        0.924     0.043     2.411     2.428
    46   1 H        0.925     0.037     2.491     2.468
    47   1 H        0.925     0.048     2.342     2.393
    48   1 H        0.924     0.044     2.402     2.424

Wiberg/Mayer (AO) data.
largest (>0.10) Wiberg bond orders for each atom

     #   Z sym  total        # sym  WBO       # sym  WBO       # sym  WBO
 ---------------------------------------------------------------------------
     1  14 Si   3.781 --    11 O    0.989     6 C    0.894     2 C    0.893
                            10 C    0.873
     2   6 C    3.984 --     4 H    0.992     3 H    0.984     5 H    0.980
                             1 Si   0.893
     3   1 H    0.999 --     2 C    0.984
     4   1 H    0.998 --     2 C    0.992
     5   1 H    0.996 --     2 C    0.980
     6   6 C    3.984 --     9 H    0.991     7 H    0.985     8 H    0.984
                             1 Si   0.894
     7   1 H    0.999 --     6 C    0.985
     8   1 H    0.996 --     6 C    0.984
     9   1 H    0.999 --     6 C    0.991
    10   6 C    3.978 --    13 H    0.999    12 H    0.990    14 H    0.989
                             1 Si   0.873
    11   8 O    2.378 --    15 C    1.121     1 Si   0.989
    12   1 H    0.999 --    10 C    0.990
    13   1 H    0.999 --    10 C    0.999
    14   1 H    0.999 --    10 C    0.989
    15   6 C    3.936 --    19 C    1.630    11 O    1.121    16 C    1.000
    16   6 C    3.993 --    15 C    1.000    17 H    0.971    24 C    0.963
                            18 H    0.960
    17   1 H    0.995 --    16 C    0.971
    18   1 H    0.997 --    16 C    0.960
    19   6 C    3.947 --    15 C    1.630    20 C    1.020    22 C    0.963
    20   6 C    3.918 --    26 O    1.710    21 O    1.095    19 C    1.020
    21   8 O    2.296 --    20 C    1.095    41 C    0.921    26 O    0.147
    22   6 C    3.990 --    38 C    0.992    39 C    0.968    19 C    0.963
                            40 H    0.958
    23   6 C    3.982 --    39 C    1.819    25 C    1.011    24 C    1.001
    24   6 C    3.993 --    23 C    1.001    27 C    0.986    16 C    0.963
                            48 H    0.953
    25   6 C    3.997 --    23 C    1.011    28 C    0.999    29 H    0.970
                            30 H    0.957
    26   8 O    2.044 --    20 C    1.710    21 O    0.147
    27   6 C    3.995 --    31 C    1.010    24 C    0.986    32 H    0.975
                            33 H    0.975
    28   6 C    3.997 --    31 C    1.010    25 C    0.999    34 H    0.977
                            35 H    0.977
    29   1 H    0.999 --    25 C    0.970
    30   1 H    0.998 --    25 C    0.957
    31   6 C    3.998 --    28 C    1.010    27 C    1.010    36 H    0.977
                            37 H    0.976
    32   1 H    0.998 --    27 C    0.975
    33   1 H    0.998 --    27 C    0.975
    34   1 H    0.999 --    28 C    0.977
    35   1 H    0.998 --    28 C    0.977
    36   1 H    0.999 --    31 C    0.977
    37   1 H    0.999 --    31 C    0.976
    38   6 C    3.996 --    42 C    1.002    22 C    0.992    46 H    0.982
                            45 H    0.978
    39   6 C    3.968 --    23 C    1.819    41 C    0.982    22 C    0.968
    40   1 H    0.998 --    22 C    0.958
    41   6 C    3.932 --    42 C    0.988    39 C    0.982    47 H    0.957
                            21 O    0.921
    42   6 C    3.995 --    38 C    1.002    41 C    0.988    44 H    0.977
                            43 H    0.977
    43   1 H    0.998 --    42 C    0.977
    44   1 H    0.997 --    42 C    0.977
    45   1 H    0.998 --    38 C    0.978
    46   1 H    0.998 --    38 C    0.982
    47   1 H    0.997 --    41 C    0.957
    48   1 H    0.997 --    24 C    0.953
 ---------------------------------------------------------------------------

molecular dipole:
                 x           y           z       tot (Debye)
 q only:        1.168       0.448       1.119
   full:        1.344       0.410       1.181       4.665

           -------------------------------------------------
          | TOTAL ENERGY              -65.783468261682 Eh   |
          | GRADIENT NORM               0.000029064452 Eh/α |
          | HOMO-LUMO GAP               3.055412697602 eV   |
           -------------------------------------------------

 * finished run on 2021/09/05 at 21:28:15.855
