   * xtb version 6.4.0 (d4b70c2) compiled by 'ehlert@majestix' on 2021-02-01
          program call               : xtb -c 0 -u 0 -a 1.0 --iterations 100 --opt normal --namespace ZKMIHLWJWWWWRG-ZUXXIDCJSA-N /home/zhao922/bin/Github/YARP/version2.0/CONF_GEN/RCS_paper/IC/opt-folder/ZKMIHLWJWWWWRG-ZUXXIDCJSA-N.xyz
          number of atoms            :                    48
          number of electrons        :                   120
          charge                     :                     0
          spin                       :                   0.0

   ID    Z sym.   atoms
    1   14 Si     1
    2    6 C      2, 6, 10, 15, 16, 19, 20, 22-25, 27, 28, 31, 38, 39, 41, 42
    3    1 H      3-5, 7-9, 12-14, 17, 18, 29, 30, 32-37, 40, 43-48
    4    8 O      11, 21, 26

          :  Hamiltonian                  GFN2-xTB          :
 * total energy  :   -65.7779063 Eh     change       -0.4157954E-09 Eh
   *** GEOMETRY OPTIMIZATION CONVERGED AFTER 1 ITERATIONS ***

 final structure:
================
48
 xtb: 6.4.0 (d4b70c2)
Si        2.48183521000000   -2.22910049000000    0.36236249000000
C         3.62881848000000   -1.85773231000000   -1.11298666000000
H         3.05628444000000   -1.76356571000000   -2.03164431000000
H         4.35964645000000   -2.64648674000000   -1.25799880000000
H         4.17424611000000   -0.92848959000000   -0.96694891000000
C         3.38658832000000   -2.15432578000000    2.02759520000000
H         2.68516406000000   -2.22172683000000    2.85293965000000
H         3.94025443000000   -1.22780497000000    2.14279741000000
H         4.09056473000000   -2.97399850000000    2.11825745000000
C         1.50492482000000   -3.84114834000000    0.11883629000000
O        -0.72744981000000   -0.79568640000000    2.33967855000000
H         0.79184881000000   -3.98262466000000    0.92702302000000
H         2.15579513000000   -4.70931207000000    0.09379845000000
H         0.94526814000000   -3.81642265000000   -0.81204190000000
C        -1.07321803000000    0.07446569000000    1.58816643000000
C        -2.25667985000000    0.99417774000000    1.78141355000000
H        -3.06102760000000    0.47227671000000    2.29945406000000
H        -1.93036537000000    1.80897436000000    2.43231819000000
C        -0.39969102000000    0.47822256000000    0.29624054000000
C         0.44329308000000   -0.62252356000000   -0.29063393000000
O         1.41147240000000   -0.94526569000000    0.53992447000000
C         0.41618610000000    1.81019146000000    0.51061795000000
C        -1.45523765000000    1.28322602000000   -0.53590041000000
C        -2.67078295000000    1.51358022000000    0.39911166000000
C        -1.87595598000000    0.79986374000000   -1.91557060000000
O         0.28367829000000   -1.14416349000000   -1.36351214000000
C        -3.91246095000000    0.77769963000000   -0.11518775000000
C        -2.68021574000000   -0.50444918000000   -1.87380312000000
H        -0.98822017000000    0.65629366000000   -2.53091200000000
H        -2.46821785000000    1.59836793000000   -2.36913610000000
C        -3.52673717000000   -0.61287149000000   -0.60262781000000
H        -4.36584341000000    1.33591930000000   -0.93603980000000
H        -4.65295794000000    0.71609924000000    0.68501817000000
H        -1.99351572000000   -1.34764802000000   -1.92897775000000
H        -3.32452546000000   -0.54150948000000   -2.75426783000000
H        -4.41967983000000   -1.20866457000000   -0.79772583000000
H        -2.95954509000000   -1.12022222000000    0.18096840000000
C         1.82988804000000    2.09148391000000    0.00024105000000
C        -0.45411066000000    2.40636708000000   -0.55685563000000
H         0.27671832000000    2.20455559000000    1.51794201000000
C         0.20793822000000    3.22275378000000   -1.35816199000000
C         1.62121701000000    3.37905717000000   -0.83605299000000
H         1.71800880000000    4.27109905000000   -0.21043238000000
H         2.33976451000000    3.45977123000000   -1.65086482000000
H         2.17069965000000    1.28830380000000   -0.65351299000000
H         2.55689802000000    2.21863680000000    0.80007115000000
H        -0.13265217000000    3.69873924000000   -2.25936097000000
H        -2.89243786000000    2.58406602000000    0.44636686000000

          :  Hamiltonian                  GFN2-xTB          :
         :: total energy             -65.777906349144 Eh    ::
         :: gradient norm              0.000067394577 Eh/a0 ::
         :: HOMO-LUMO gap              3.403933759310 eV    ::
         :: SCC energy               -66.643273230376 Eh    ::
         :: -> dispersion             -0.053573477728 Eh    ::
         :: repulsion energy           0.863976576414 Eh    ::

    * Orbital Energies and Occupations

         #    Occupation            Energy/Eh            Energy/eV
      -------------------------------------------------------------
         1        2.0000           -0.7774996             -21.1568
       ...           ...                  ...                  ...
        48        2.0000           -0.4514042             -12.2833
        49        2.0000           -0.4483112             -12.1992
        50        2.0000           -0.4476543             -12.1813
        51        2.0000           -0.4433991             -12.0655
        52        2.0000           -0.4326205             -11.7722
        53        2.0000           -0.4224680             -11.4959
        54        2.0000           -0.4151229             -11.2961
        55        2.0000           -0.4097947             -11.1511
        56        2.0000           -0.4052001             -11.0261
        57        2.0000           -0.3966827             -10.7943
        58        2.0000           -0.3950084             -10.7487
        59        2.0000           -0.3915865             -10.6556
        60        2.0000           -0.3801874             -10.3454 (HOMO)
        61                         -0.2550952              -6.9415 (LUMO)
        62                         -0.2325578              -6.3282
        63                         -0.2112545              -5.7485
        64                         -0.1363784              -3.7110
        65                         -0.1160239              -3.1572
        66                         -0.1046734              -2.8483
        67                         -0.0153721              -0.4183
        68                         -0.0079123              -0.2153
        69                          0.0081802               0.2226
        70                          0.0171184               0.4658
        71                          0.0233616               0.6357
       ...                                ...                  ...
       119                          0.7142982              19.4370
      -------------------------------------------------------------
                  HL-Gap            0.1250923 Eh            3.4039 eV

     #   Z          covCN         q      C6AA      α(0)
     1  14 Si       3.480     0.574    99.573    19.358
     2   6 C        3.649    -0.207    24.986     7.181
     3   1 H        0.925     0.053     2.288     2.366
     4   1 H        0.925     0.038     2.479     2.462
     5   1 H        0.925     0.042     2.427     2.436
     6   6 C        3.651    -0.209    25.014     7.184
     7   1 H        0.925     0.052     2.296     2.370
     8   1 H        0.925     0.042     2.417     2.431
     9   1 H        0.925     0.027     2.631     2.537
    10   6 C        3.649    -0.206    24.950     7.175
    11   8 O        0.856    -0.353    20.768     6.110
    12   1 H        0.925     0.050     2.324     2.384
    13   1 H        0.925     0.038     2.471     2.458
    14   1 H        0.925     0.055     2.257     2.349
    15   6 C        2.827     0.245    22.895     7.841
    16   6 C        3.819    -0.089    22.182     6.703
    17   1 H        0.925     0.069     2.100     2.266
    18   1 H        0.924     0.065     2.142     2.289
    19   6 C        4.186    -0.032    21.062     6.518
    20   6 C        2.779     0.370    20.730     7.457
    21   8 O        1.625    -0.345    19.838     6.012
    22   6 C        4.030    -0.013    20.733     6.468
    23   6 C        4.043     0.018    20.197     6.384
    24   6 C        3.863    -0.021    20.910     6.503
    25   6 C        3.805    -0.058    21.618     6.619
    26   8 O        0.856    -0.420    22.076     6.299
    27   6 C        3.807    -0.060    21.641     6.622
    28   6 C        3.804    -0.062    21.680     6.629
    29   1 H        0.925     0.053     2.288     2.366
    30   1 H        0.924     0.038     2.481     2.463
    31   6 C        3.804    -0.056    21.570     6.612
    32   1 H        0.924     0.041     2.439     2.442
    33   1 H        0.924     0.033     2.546     2.495
    34   1 H        0.925     0.054     2.268     2.355
    35   1 H        0.924     0.032     2.559     2.501
    36   1 H        0.924     0.032     2.559     2.502
    37   1 H        0.924     0.031     2.575     2.509
    38   6 C        3.837    -0.055    21.530     6.601
    39   6 C        3.287    -0.018    26.873     8.328
    40   1 H        0.924     0.034     2.524     2.484
    41   6 C        2.930    -0.051    29.258     8.871
    42   6 C        3.865    -0.058    21.573     6.605
    43   1 H        0.924     0.041     2.440     2.443
    44   1 H        0.925     0.041     2.433     2.439
    45   1 H        0.924     0.038     2.474     2.460
    46   1 H        0.925     0.037     2.487     2.466
    47   1 H        0.926     0.035     2.523     2.484
    48   1 H        0.924     0.037     2.493     2.469

Wiberg/Mayer (AO) data.
largest (>0.10) Wiberg bond orders for each atom

     #   Z sym  total        # sym  WBO       # sym  WBO       # sym  WBO
 ---------------------------------------------------------------------------
     1  14 Si   3.710 --    10 C    0.909     2 C    0.902     6 C    0.892
                            21 O    0.888
     2   6 C    3.984 --     4 H    0.991     3 H    0.983     5 H    0.981
                             1 Si   0.902
     3   1 H    0.997 --     2 C    0.983
     4   1 H    0.998 --     2 C    0.991
     5   1 H    0.998 --     2 C    0.981
     6   6 C    3.984 --     9 H    0.998     8 H    0.985     7 H    0.984
                             1 Si   0.892
     7   1 H    0.997 --     6 C    0.984
     8   1 H    0.998 --     6 C    0.985
     9   1 H    0.999 --     6 C    0.998
    10   6 C    3.986 --    13 H    0.989    14 H    0.981    12 H    0.980
                             1 Si   0.909
    11   8 O    2.094 --    15 C    1.863
    12   1 H    0.998 --    10 C    0.980
    13   1 H    0.998 --    10 C    0.989
    14   1 H    0.997 --    10 C    0.981
    15   6 C    3.918 --    11 O    1.863    16 C    0.983    19 C    0.954
    16   6 C    3.995 --    24 C    0.994    15 C    0.983    17 H    0.959
                            18 H    0.942
    17   1 H    0.995 --    16 C    0.959
    18   1 H    0.995 --    16 C    0.942
    19   6 C    3.982 --    20 C    0.955    15 C    0.954    23 C    0.935
                            22 C    0.889
    20   6 C    3.923 --    26 O    1.737    21 O    1.170    19 C    0.955
    21   8 O    2.352 --    20 C    1.170     1 Si   0.888    26 O    0.154
    22   6 C    3.980 --    38 C    0.995    39 C    0.990    40 H    0.961
                            19 C    0.889
    23   6 C    3.977 --    25 C    0.990    39 C    0.981    24 C    0.957
                            19 C    0.935
    24   6 C    3.994 --    27 C    0.998    16 C    0.994    48 H    0.971
                            23 C    0.957
    25   6 C    3.995 --    28 C    1.001    23 C    0.990    29 H    0.973
                            30 H    0.972
    26   8 O    2.038 --    20 C    1.737    21 O    0.154
    27   6 C    3.997 --    31 C    1.010    24 C    0.998    32 H    0.975
                            33 H    0.974
    28   6 C    3.995 --    31 C    1.005    25 C    1.001    35 H    0.980
                            34 H    0.976
    29   1 H    0.997 --    25 C    0.973
    30   1 H    0.998 --    25 C    0.972
    31   6 C    3.998 --    27 C    1.010    28 C    1.005    36 H    0.979
                            37 H    0.975
    32   1 H    0.998 --    27 C    0.975
    33   1 H    0.998 --    27 C    0.974
    34   1 H    0.997 --    28 C    0.976
    35   1 H    0.998 --    28 C    0.980
    36   1 H    0.999 --    31 C    0.979
    37   1 H    0.999 --    31 C    0.975
    38   6 C    3.995 --    42 C    0.995    22 C    0.995    46 H    0.981
                            45 H    0.978
    39   6 C    3.962 --    41 C    1.878    22 C    0.990    23 C    0.981
    40   1 H    0.999 --    22 C    0.961
    41   6 C    3.981 --    39 C    1.878    42 C    1.009    47 H    0.969
    42   6 C    3.995 --    41 C    1.009    38 C    0.995    44 H    0.974
                            43 H    0.966
    43   1 H    0.998 --    42 C    0.966
    44   1 H    0.998 --    42 C    0.974
    45   1 H    0.999 --    38 C    0.978
    46   1 H    0.999 --    38 C    0.981
    47   1 H    0.999 --    41 C    0.969
    48   1 H    0.998 --    24 C    0.971
 ---------------------------------------------------------------------------

molecular dipole:
                 x           y           z       tot (Debye)
 q only:        0.047       0.714      -0.143
   full:        0.005       0.952       0.014       2.420

           -------------------------------------------------
          | TOTAL ENERGY              -65.777906349144 Eh   |
          | GRADIENT NORM               0.000067394577 Eh/α |
          | HOMO-LUMO GAP               3.403933759310 eV   |
           -------------------------------------------------

 * finished run on 2021/09/05 at 21:28:19.878
