 Gaussian 16, Revision B.01,
 Gaussian 16:  ES64L-G16RevB.01 20-Dec-2017

 ----------------------------------------------------------------------
 # B3LYP/6-31+G* IRC=(CALCALL, maxpoints=40, StepSize=15, maxcyc=100, R
 eport=Cartesians)
 ----------------------------------------------------------------------

 ----------
 pp_1_0 IRC
 ----------
 Symbolic Z-matrix:
 Charge =  0 Multiplicity = 1

 SCF Done:  E(RB3LYP) =  -343.372723279     A.U. after   17 cycles
 SCF Done:  E(RB3LYP) =  -343.373048204     A.U. after   13 cycles
 SCF Done:  E(RB3LYP) =  -343.374029056     A.U. after   13 cycles
 SCF Done:  E(RB3LYP) =  -343.375648082     A.U. after   13 cycles
 SCF Done:  E(RB3LYP) =  -343.377852916     A.U. after   13 cycles
 SCF Done:  E(RB3LYP) =  -343.380544871     A.U. after   13 cycles
 SCF Done:  E(RB3LYP) =  -343.383595288     A.U. after   13 cycles
 SCF Done:  E(RB3LYP) =  -343.386885073     A.U. after   13 cycles
 SCF Done:  E(RB3LYP) =  -343.390332526     A.U. after   12 cycles
 SCF Done:  E(RB3LYP) =  -343.393893842     A.U. after   12 cycles
 SCF Done:  E(RB3LYP) =  -343.490494964     A.U. after   11 cycles
 SCF Done:  E(RB3LYP) =  -343.491598296     A.U. after   11 cycles
 SCF Done:  E(RB3LYP) =  -343.492552892     A.U. after   11 cycles
 SCF Done:  E(RB3LYP) =  -343.493374907     A.U. after   11 cycles
 SCF Done:  E(RB3LYP) =  -343.494080628     A.U. after   11 cycles
 SCF Done:  E(RB3LYP) =  -343.494686961     A.U. after   11 cycles
 SCF Done:  E(RB3LYP) =  -343.495211583     A.U. after   11 cycles
 SCF Done:  E(RB3LYP) =  -343.495672510     A.U. after   11 cycles
 SCF Done:  E(RB3LYP) =  -343.496086646     A.U. after   11 cycles
 SCF Done:  E(RB3LYP) =  -343.496467701     A.U. after   11 cycles

                          Input orientation:
 ---------------------------------------------------------------------
 Center     Atomic      Atomic             Coordinates (Angstroms)
 Number     Number       Type             X           Y           Z
 ---------------------------------------------------------------------
      1          6           0       -0.366231   -0.227699    0.515412
      2          6           0        0.719835    0.741703    0.042340
      3          6           0        2.046100    0.046749   -0.178457
      4          8           0       -1.643914    0.388535    0.664994
      5          8           0       -2.365117    0.161124   -0.591627
      6          8           0        2.158388   -1.145639   -0.381877
      7          1           0       -2.847684    1.004849   -0.658415
      8          1           0       -0.129461   -0.604150    1.517494
      9          1           0       -0.456923   -1.086311   -0.153532
     10          1           0        2.947985    0.697450   -0.164409
     11          1           0        0.430354    1.202974   -0.915293
     12          1           0        0.853902    1.567024    0.754229
 ---------------------------------------------------------------------

 Alpha  occ. eigenvalues --  -19.22486 -19.22403 -19.17475 -10.29967 -10.25310
 Alpha  occ. eigenvalues --  -10.21662  -1.12865  -1.06782  -0.93409  -0.78907
 Alpha  occ. eigenvalues --   -0.66624  -0.58299  -0.55161  -0.50886  -0.48614
 Alpha  occ. eigenvalues --   -0.46640  -0.46090  -0.43360  -0.40023  -0.38929
 Alpha  occ. eigenvalues --   -0.36612  -0.34655  -0.28286  -0.26091
 Alpha virt. eigenvalues --   -0.04983  -0.01365   0.00403   0.01499   0.02822
 Alpha virt. eigenvalues --    0.03944   0.05149   0.06922   0.07605   0.08183
 Alpha virt. eigenvalues --    0.08896   0.11165   0.11695   0.13900   0.14720

 Mulliken charges:
               1
     1  C   -0.248855
     2  C   -0.412816
     3  C    0.146593
     4  O   -0.159995
     5  O   -0.518341
     6  O   -0.357106
     7  H    0.471320
     8  H    0.211375
     9  H    0.242171
    10  H    0.162233
    11  H    0.242184
    12  H    0.221236
 Sum of Mulliken charges =  -0.00000

 Dipole moment (field-independent basis, Debye):
    X=              0.0409    Y=              3.3391    Z=              0.1237  Tot=              3.3416
 Quadrupole moment (field-independent basis, Debye-Ang):
   XX=            -37.2740   YY=            -36.5826   ZZ=            -35.6813
   XY=              1.9315   XZ=              3.4301   YZ=             -2.7884

  Exact polarizability:   0.000   0.000   0.000   0.000   0.000   0.000
 Approx polarizability:  66.748  -4.349  74.082   5.815   3.625  59.857

 Normal termination of Gaussian 16 at Thu Dec 24 00:00:00 2020.
