 Gaussian 16, Revision B.01,
 Gaussian 16:  ES64L-G16RevB.01 20-Dec-2017

 ----------------------------------------------------------------------
 # B3LYP/6-31+G* IRC=(CALCALL, maxpoints=40, StepSize=15, maxcyc=100, R
 eport=Cartesians)
 ----------------------------------------------------------------------

 -----------
 pp_13_1 IRC
 -----------
 Symbolic Z-matrix:
 Charge =  0 Multiplicity = 1

 SCF Done:  E(RB3LYP) =  -343.335578330     A.U. after   16 cycles
 SCF Done:  E(RB3LYP) =  -343.337499032     A.U. after   13 cycles
 SCF Done:  E(RB3LYP) =  -343.342826525     A.U. after   13 cycles
 SCF Done:  E(RB3LYP) =  -343.350501400     A.U. after   13 cycles
 SCF Done:  E(RB3LYP) =  -343.359362550     A.U. after   13 cycles
 SCF Done:  E(RB3LYP) =  -343.368569254     A.U. after   13 cycles
 SCF Done:  E(RB3LYP) =  -343.377641433     A.U. after   12 cycles
 SCF Done:  E(RB3LYP) =  -343.386304109     A.U. after   12 cycles
 SCF Done:  E(RB3LYP) =  -343.394392560     A.U. after   12 cycles
 SCF Done:  E(RB3LYP) =  -343.401815890     A.U. after   11 cycles
 SCF Done:  E(RB3LYP) =  -343.497189429     A.U. after   11 cycles
 SCF Done:  E(RB3LYP) =  -343.497334633     A.U. after   11 cycles
 SCF Done:  E(RB3LYP) =  -343.497457221     A.U. after   11 cycles
 SCF Done:  E(RB3LYP) =  -343.497562222     A.U. after   11 cycles
 SCF Done:  E(RB3LYP) =  -343.497652492     A.U. after   10 cycles
 SCF Done:  E(RB3LYP) =  -343.497730741     A.U. after   10 cycles
 SCF Done:  E(RB3LYP) =  -343.497800171     A.U. after   11 cycles
 SCF Done:  E(RB3LYP) =  -343.497864272     A.U. after   11 cycles
 SCF Done:  E(RB3LYP) =  -343.497926145     A.U. after   11 cycles
 SCF Done:  E(RB3LYP) =  -343.497987963     A.U. after   11 cycles

                          Input orientation:
 ---------------------------------------------------------------------
 Center     Atomic      Atomic             Coordinates (Angstroms)
 Number     Number       Type             X           Y           Z
 ---------------------------------------------------------------------
      1          6           0        0.363942   -0.569393    0.369296
      2          6           0       -0.443162    0.726688    0.225481
      3          6           0       -1.923922    0.522735   -0.005025
      4          8           0        1.531741   -0.584502   -0.442832
      5          8           0        2.391766    0.501070    0.037051
      6          8           0       -2.467613   -0.551499   -0.159176
      7          1           0        3.228202    0.013023    0.139379
      8          1           0        0.633709   -0.767560    1.414064
      9          1           0       -0.210092   -1.418791   -0.016863
     10          1           0       -2.522504    1.458654   -0.043199
     11          1           0       -0.064845    1.297598   -0.636341
     12          1           0       -0.319503    1.396888    1.087156
 ---------------------------------------------------------------------

 Alpha  occ. eigenvalues --  -19.22646 -19.22367 -19.17311 -10.29742 -10.25294
 Alpha  occ. eigenvalues --  -10.21414  -1.13084  -1.06636  -0.93458  -0.78701
 Alpha  occ. eigenvalues --   -0.66875  -0.58572  -0.53571  -0.50924  -0.50244
 Alpha  occ. eigenvalues --   -0.45816  -0.44987  -0.44357  -0.40969  -0.38153
 Alpha  occ. eigenvalues --   -0.36439  -0.33509  -0.28260  -0.26913
 Alpha virt. eigenvalues --   -0.04304  -0.01294   0.00759   0.01167   0.03319
 Alpha virt. eigenvalues --    0.04072   0.05341   0.06518   0.06939   0.08741
 Alpha virt. eigenvalues --    0.09266   0.11422   0.12301   0.12757   0.15086

 Mulliken charges:
               1
     1  C   -0.196174
     2  C   -0.413413
     3  C    0.114767
     4  O   -0.160998
     5  O   -0.544885
     6  O   -0.366052
     7  H    0.484242
     8  H    0.196020
     9  H    0.237537
    10  H    0.160362
    11  H    0.256937
    12  H    0.231658
 Sum of Mulliken charges =  -0.00000

 Dipole moment (field-independent basis, Debye):
    X=              1.5985    Y=              1.4290    Z=              1.4735  Tot=              2.6017
 Quadrupole moment (field-independent basis, Debye-Ang):
   XX=            -36.5439   YY=            -36.0119   ZZ=            -35.9353
   XY=             -6.4694   XZ=              1.1743   YZ=             -0.8551

  Exact polarizability:   0.000   0.000   0.000   0.000   0.000   0.000
 Approx polarizability:  72.581  12.596  76.008   2.964   4.366  53.220

 Normal termination of Gaussian 16 at Wed Dec 23 22:39:50 2020.
