 Gaussian 16, Revision B.01,
 Gaussian 16:  ES64L-G16RevB.01 20-Dec-2017

 ----------------------------------------------------------------------
 # B3LYP/6-31+G* IRC=(CALCALL, maxpoints=40, StepSize=15, maxcyc=100, R
 eport=Cartesians)
 ----------------------------------------------------------------------

 -----------
 pp_13_3 IRC
 -----------
 Symbolic Z-matrix:
 Charge =  0 Multiplicity = 1

 SCF Done:  E(RB3LYP) =  -343.340688588     A.U. after   16 cycles
 SCF Done:  E(RB3LYP) =  -343.342445735     A.U. after   12 cycles
 SCF Done:  E(RB3LYP) =  -343.347631702     A.U. after   12 cycles
 SCF Done:  E(RB3LYP) =  -343.355845529     A.U. after   12 cycles
 SCF Done:  E(RB3LYP) =  -343.366487213     A.U. after   12 cycles
 SCF Done:  E(RB3LYP) =  -343.378836689     A.U. after   12 cycles
 SCF Done:  E(RB3LYP) =  -343.392107295     A.U. after   12 cycles
 SCF Done:  E(RB3LYP) =  -343.405521814     A.U. after   12 cycles
 SCF Done:  E(RB3LYP) =  -343.418427455     A.U. after   11 cycles
 SCF Done:  E(RB3LYP) =  -343.430408747     A.U. after   12 cycles
 SCF Done:  E(RB3LYP) =  -343.449949953     A.U. after   11 cycles
 SCF Done:  E(RB3LYP) =  -343.450383945     A.U. after   11 cycles
 SCF Done:  E(RB3LYP) =  -343.450760945     A.U. after   11 cycles
 SCF Done:  E(RB3LYP) =  -343.451083689     A.U. after   11 cycles
 SCF Done:  E(RB3LYP) =  -343.451355205     A.U. after   11 cycles
 SCF Done:  E(RB3LYP) =  -343.451579062     A.U. after   10 cycles
 SCF Done:  E(RB3LYP) =  -343.451759517     A.U. after   11 cycles
 SCF Done:  E(RB3LYP) =  -343.451901721     A.U. after   11 cycles
 SCF Done:  E(RB3LYP) =  -343.452011977     A.U. after   11 cycles
 SCF Done:  E(RB3LYP) =  -343.452097576     A.U. after   10 cycles

                          Input orientation:
 ---------------------------------------------------------------------
 Center     Atomic      Atomic             Coordinates (Angstroms)
 Number     Number       Type             X           Y           Z
 ---------------------------------------------------------------------
      1          6           0        0.328385    0.023655   -0.093725
      2          6           0       -0.758318    0.820325   -0.124495
      3          6           0       -2.095743    0.223516   -0.045585
      4          8           0        1.569830    0.538983   -0.218146
      5          8           0        2.538935   -0.506996    0.077851
      6          8           0       -2.335304   -0.975731   -0.000958
      7          1           0        3.126147   -0.409815   -0.696427
      8          1           0        0.275037   -1.055286    0.016973
      9          1           0        1.415156    0.343240    3.206408
     10          1           0       -2.930277    0.954397   -0.024959
     11          1           0       -0.666897    1.899976   -0.203261
     12          1           0        0.707523    0.534916    3.084122
 ---------------------------------------------------------------------

 Alpha  occ. eigenvalues --  -19.28249 -19.26124 -19.15097 -10.29037 -10.28378
 Alpha  occ. eigenvalues --  -10.21017  -1.18513  -1.04362  -0.98586  -0.79453
 Alpha  occ. eigenvalues --   -0.66409  -0.59782  -0.57391  -0.53300  -0.48876
 Alpha  occ. eigenvalues --   -0.47059  -0.44415  -0.43110  -0.41785  -0.40430
 Alpha  occ. eigenvalues --   -0.39346  -0.34738  -0.26519  -0.26338
 Alpha virt. eigenvalues --   -0.07319  -0.04631  -0.00243   0.01242   0.03716
 Alpha virt. eigenvalues --    0.04417   0.05179   0.06020   0.06593   0.08027
 Alpha virt. eigenvalues --    0.10453   0.10557   0.11311   0.12656   0.13831

 Mulliken charges:
               1
     1  C   -0.246285
     2  C    0.143233
     3  C   -0.004254
     4  O   -0.088166
     5  O   -0.481290
     6  O   -0.425284
     7  H    0.475632
     8  H    0.255029
     9  H    0.006755
    10  H    0.156597
    11  H    0.198963
    12  H    0.009071
 Sum of Mulliken charges =  -0.00000

 Dipole moment (field-independent basis, Debye):
    X=              2.8124    Y=              1.8212    Z=             -1.3352  Tot=              3.6068
 Quadrupole moment (field-independent basis, Debye-Ang):
   XX=            -34.8637   YY=            -37.9320   ZZ=            -36.5573
   XY=             -7.7556   XZ=             -4.3685   YZ=              0.5273

  Exact polarizability:   0.000   0.000   0.000   0.000   0.000   0.000
 Approx polarizability: 124.885  -8.007  77.889  -0.497  -3.182  43.522

 Normal termination of Gaussian 16 at Wed Dec 23 22:38:44 2020.
