 Gaussian 16, Revision B.01,
 Gaussian 16:  ES64L-G16RevB.01 20-Dec-2017

 ----------------------------------------------------------------------
 # B3LYP/6-31+G* IRC=(CALCALL, maxpoints=40, StepSize=15, maxcyc=100, R
 eport=Cartesians)
 ----------------------------------------------------------------------

 -----------
 pp_15_0 IRC
 -----------
 Symbolic Z-matrix:
 Charge =  0 Multiplicity = 1

 SCF Done:  E(RB3LYP) =  -343.387718526     A.U. after   18 cycles
 SCF Done:  E(RB3LYP) =  -343.388929062     A.U. after   13 cycles
 SCF Done:  E(RB3LYP) =  -343.392596397     A.U. after   13 cycles
 SCF Done:  E(RB3LYP) =  -343.398518873     A.U. after   13 cycles
 SCF Done:  E(RB3LYP) =  -343.406228801     A.U. after   13 cycles
 SCF Done:  E(RB3LYP) =  -343.415123402     A.U. after   12 cycles
 SCF Done:  E(RB3LYP) =  -343.424582591     A.U. after   12 cycles
 SCF Done:  E(RB3LYP) =  -343.434050352     A.U. after   12 cycles
 SCF Done:  E(RB3LYP) =  -343.443082915     A.U. after   12 cycles
 SCF Done:  E(RB3LYP) =  -343.451371076     A.U. after   12 cycles
 SCF Done:  E(RB3LYP) =  -343.529123186     A.U. after   11 cycles
 SCF Done:  E(RB3LYP) =  -343.541879891     A.U. after   11 cycles
 SCF Done:  E(RB3LYP) =  -343.550561841     A.U. after   12 cycles
 SCF Done:  E(RB3LYP) =  -343.555225421     A.U. after   11 cycles
 SCF Done:  E(RB3LYP) =  -343.558638502     A.U. after   11 cycles
 SCF Done:  E(RB3LYP) =  -343.561524051     A.U. after   11 cycles
 SCF Done:  E(RB3LYP) =  -343.564025396     A.U. after   11 cycles
 SCF Done:  E(RB3LYP) =  -343.566227086     A.U. after   11 cycles
 SCF Done:  E(RB3LYP) =  -343.568180883     A.U. after   11 cycles
 SCF Done:  E(RB3LYP) =  -343.569925950     A.U. after   10 cycles

                          Input orientation:
 ---------------------------------------------------------------------
 Center     Atomic      Atomic             Coordinates (Angstroms)
 Number     Number       Type             X           Y           Z
 ---------------------------------------------------------------------
      1          6           0        0.488865    0.679722    0.290151
      2          6           0       -0.572843   -0.140113   -0.385176
      3          6           0       -1.875995   -0.226761    0.354430
      4          8           0        1.500207    0.981698   -0.305105
      5          8           0        2.683349   -0.978824    0.234818
      6          8           0       -2.959165   -0.122633   -0.177182
      7          1           0        3.362403   -1.361170   -0.340198
      8          1           0        2.832653   -0.021548    0.206485
      9          1           0        0.360949    0.936800    1.361212
     10          1           0       -1.801372   -0.411257    1.449164
     11          1           0       -0.132805   -1.153523   -0.418147
     12          1           0       -0.716745    0.186329   -1.419715
 ---------------------------------------------------------------------

 Alpha  occ. eigenvalues --  -19.18649 -19.18201 -19.15570 -10.31433 -10.30705
 Alpha  occ. eigenvalues --  -10.22703  -1.08857  -1.07580  -1.01257  -0.80866
 Alpha  occ. eigenvalues --   -0.63254  -0.61219  -0.55091  -0.52157  -0.49060
 Alpha  occ. eigenvalues --   -0.48068  -0.45148  -0.44255  -0.40937  -0.39254
 Alpha  occ. eigenvalues --   -0.38154  -0.31162  -0.29963  -0.27548
 Alpha virt. eigenvalues --   -0.06828  -0.05497   0.00603   0.01369   0.02210
 Alpha virt. eigenvalues --    0.03590   0.05403   0.06595   0.07110   0.08333
 Alpha virt. eigenvalues --    0.08803   0.10830   0.11555   0.13132   0.15706

 Mulliken charges:
               1
     1  C    0.202026
     2  C   -0.519416
     3  C    0.175531
     4  O   -0.392262
     5  O   -0.957754
     6  O   -0.365341
     7  H    0.474152
     8  H    0.493188
     9  H    0.171469
    10  H    0.164559
    11  H    0.287735
    12  H    0.266114
 Sum of Mulliken charges =  -0.00000

 Dipole moment (field-independent basis, Debye):
    X=              1.7127    Y=             -0.2376    Z=              0.6083  Tot=              1.8330
 Quadrupole moment (field-independent basis, Debye-Ang):
   XX=            -44.0116   YY=            -36.3236   ZZ=            -35.1504
   XY=             -1.2953   XZ=             -4.8308   YZ=              3.0757

  Exact polarizability:   0.000   0.000   0.000   0.000   0.000   0.000
 Approx polarizability:  85.621   2.057  52.223  -0.260  -0.585  63.578

 Normal termination of Gaussian 16 at Wed Dec 23 22:36:40 2020.
