 Gaussian 16, Revision B.01,
 Gaussian 16:  ES64L-G16RevB.01 20-Dec-2017

 ----------------------------------------------------------------------
 # B3LYP/6-31+G* IRC=(CALCALL, maxpoints=40, StepSize=15, maxcyc=100, R
 eport=Cartesians)
 ----------------------------------------------------------------------

 -----------
 pp_17_0 IRC
 -----------
 Symbolic Z-matrix:
 Charge =  0 Multiplicity = 1

 SCF Done:  E(RB3LYP) =  -343.390960114     A.U. after   16 cycles
 SCF Done:  E(RB3LYP) =  -343.393998627     A.U. after   14 cycles
 SCF Done:  E(RB3LYP) =  -343.394007720     A.U. after   10 cycles
 SCF Done:  E(RB3LYP) =  -343.402279224     A.U. after   13 cycles
 SCF Done:  E(RB3LYP) =  -343.414261466     A.U. after   13 cycles
 SCF Done:  E(RB3LYP) =  -343.428548103     A.U. after   13 cycles
 SCF Done:  E(RB3LYP) =  -343.443903607     A.U. after   12 cycles
 SCF Done:  E(RB3LYP) =  -343.459124373     A.U. after   12 cycles
 SCF Done:  E(RB3LYP) =  -343.472934521     A.U. after   12 cycles
 SCF Done:  E(RB3LYP) =  -343.483957330     A.U. after   11 cycles
 SCF Done:  E(RB3LYP) =  -343.574002074     A.U. after   11 cycles
 SCF Done:  E(RB3LYP) =  -343.574005960     A.U. after    9 cycles
 SCF Done:  E(RB3LYP) =  -343.574155815     A.U. after   11 cycles
 SCF Done:  E(RB3LYP) =  -343.574159896     A.U. after    9 cycles
 SCF Done:  E(RB3LYP) =  -343.574282576     A.U. after   11 cycles
 SCF Done:  E(RB3LYP) =  -343.574286832     A.U. after    9 cycles
 SCF Done:  E(RB3LYP) =  -343.574380181     A.U. after   11 cycles
 SCF Done:  E(RB3LYP) =  -343.574384628     A.U. after    9 cycles
 SCF Done:  E(RB3LYP) =  -343.574446727     A.U. after   11 cycles
 SCF Done:  E(RB3LYP) =  -343.574451420     A.U. after    9 cycles

                          Input orientation:
 ---------------------------------------------------------------------
 Center     Atomic      Atomic             Coordinates (Angstroms)
 Number     Number       Type             X           Y           Z
 ---------------------------------------------------------------------
      1          6           0        1.335278    0.468328   -0.323650
      2          6           0       -0.664390   -0.812227   -0.350103
      3          6           0       -1.635347    0.081909    0.411763
      4          8           0        0.666646   -0.709824    0.121077
      5          8           0        2.645172    0.447518    0.136642
      6          8           0       -2.701068    0.448905   -0.032559
      7          1           0        2.636569    0.418369    1.107487
      8          1           0        1.388772    0.484467   -1.419445
      9          1           0        0.786654    1.358079    0.033313
     10          1           0       -1.310721    0.356101    1.440164
     11          1           0       -0.970093   -1.853127   -0.181780
     12          1           0       -0.744248   -0.609511   -1.428649
 ---------------------------------------------------------------------

 Alpha  occ. eigenvalues --  -19.18938 -19.18714 -19.18269 -10.30777 -10.30282
 Alpha  occ. eigenvalues --  -10.26871  -1.09598  -1.07496  -1.03594  -0.76409
 Alpha  occ. eigenvalues --   -0.68845  -0.61372  -0.55799  -0.53629  -0.50866
 Alpha  occ. eigenvalues --   -0.47968  -0.46360  -0.45573  -0.40071  -0.38240
 Alpha  occ. eigenvalues --   -0.36744  -0.32732  -0.30765  -0.27143
 Alpha virt. eigenvalues --   -0.05883  -0.00468   0.00897   0.01923   0.02436
 Alpha virt. eigenvalues --    0.04541   0.05824   0.06408   0.07019   0.08375
 Alpha virt. eigenvalues --    0.10649   0.11162   0.13469   0.15261   0.16209

 Mulliken charges:
               1
     1  C    0.013779
     2  C   -0.292417
     3  C    0.173227
     4  O   -0.379059
     5  O   -0.604457
     6  O   -0.344511
     7  H    0.462564
     8  H    0.186447
     9  H    0.163834
    10  H    0.172611
    11  H    0.231299
    12  H    0.216684
 Sum of Mulliken charges =   0.00000

 Dipole moment (field-independent basis, Debye):
    X=              0.6663    Y=             -0.1067    Z=              0.9397  Tot=              1.1568
 Quadrupole moment (field-independent basis, Debye-Ang):
   XX=            -50.5127   YY=            -36.0240   ZZ=            -31.9687
   XY=              4.4236   XZ=              1.7173   YZ=              1.2657

  Exact polarizability:   0.000   0.000   0.000   0.000   0.000   0.000
 Approx polarizability:  74.586  -4.368  55.383   7.748  -0.176  61.340

 Normal termination of Gaussian 16 at Wed Dec 23 22:33:45 2020.
