 Gaussian 16, Revision B.01,
 Gaussian 16:  ES64L-G16RevB.01 20-Dec-2017

 ----------------------------------------------------------------------
 # B3LYP/6-31+G* IRC=(CALCALL, maxpoints=40, StepSize=15, maxcyc=100, R
 eport=Cartesians)
 ----------------------------------------------------------------------

 -----------
 pp_12_0 IRC
 -----------
 Symbolic Z-matrix:
 Charge =  0 Multiplicity = 1

 SCF Done:  E(RB3LYP) =  -343.397313865     A.U. after   16 cycles
 SCF Done:  E(RB3LYP) =  -343.397880595     A.U. after   13 cycles
 SCF Done:  E(RB3LYP) =  -343.399348945     A.U. after   12 cycles
 SCF Done:  E(RB3LYP) =  -343.401393369     A.U. after   12 cycles
 SCF Done:  E(RB3LYP) =  -343.403770354     A.U. after   12 cycles
 SCF Done:  E(RB3LYP) =  -343.406294769     A.U. after   12 cycles
 SCF Done:  E(RB3LYP) =  -343.408824415     A.U. after   12 cycles
 SCF Done:  E(RB3LYP) =  -343.411254292     A.U. after   12 cycles
 SCF Done:  E(RB3LYP) =  -343.413520016     A.U. after   12 cycles
 SCF Done:  E(RB3LYP) =  -343.415600742     A.U. after   12 cycles
 SCF Done:  E(RB3LYP) =  -343.494556972     A.U. after   11 cycles
 SCF Done:  E(RB3LYP) =  -343.495226767     A.U. after   11 cycles
 SCF Done:  E(RB3LYP) =  -343.495839609     A.U. after   11 cycles
 SCF Done:  E(RB3LYP) =  -343.496396229     A.U. after   11 cycles
 SCF Done:  E(RB3LYP) =  -343.496897333     A.U. after   11 cycles
 SCF Done:  E(RB3LYP) =  -343.497343912     A.U. after   11 cycles
 SCF Done:  E(RB3LYP) =  -343.497737567     A.U. after   10 cycles
 SCF Done:  E(RB3LYP) =  -343.498080770     A.U. after   10 cycles
 SCF Done:  E(RB3LYP) =  -343.498377002     A.U. after   11 cycles
 SCF Done:  E(RB3LYP) =  -343.498630720     A.U. after   11 cycles

                          Input orientation:
 ---------------------------------------------------------------------
 Center     Atomic      Atomic             Coordinates (Angstroms)
 Number     Number       Type             X           Y           Z
 ---------------------------------------------------------------------
      1          6           0        0.519765    1.273248   -0.242601
      2          6           0       -0.753215    0.941243    0.569513
      3          6           0       -1.610664   -0.143775   -0.042519
      4          8           0        1.289372    0.141816   -0.623386
      5          8           0        1.464518   -0.720277    0.532661
      6          8           0       -1.225752   -1.287665   -0.211507
      7          1           0        0.726658   -1.349615    0.366974
      8          1           0        0.271888    1.735047   -1.206273
      9          1           0        1.127529    1.978058    0.341691
     10          1           0       -2.640683    0.132142   -0.347942
     11          1           0       -1.337253    1.860997    0.690375
     12          1           0       -0.443256    0.604493    1.565600
 ---------------------------------------------------------------------

 Alpha  occ. eigenvalues --  -19.21905 -19.20670 -19.18916 -10.31023 -10.26509
 Alpha  occ. eigenvalues --  -10.22472  -1.12553  -1.07920  -0.92122  -0.79627
 Alpha  occ. eigenvalues --   -0.67303  -0.59656  -0.54660  -0.51127  -0.49280
 Alpha  occ. eigenvalues --   -0.47018  -0.45874  -0.44019  -0.41384  -0.39994
 Alpha  occ. eigenvalues --   -0.37058  -0.30349  -0.28748  -0.28234
 Alpha virt. eigenvalues --   -0.06741  -0.00518   0.00368   0.02206   0.02589
 Alpha virt. eigenvalues --    0.03479   0.05479   0.06207   0.07162   0.07493
 Alpha virt. eigenvalues --    0.09643   0.11063   0.12202   0.14180   0.15125

 Mulliken charges:
               1
     1  C   -0.247601
     2  C   -0.494862
     3  C    0.245305
     4  O   -0.122987
     5  O   -0.540650
     6  O   -0.395431
     7  H    0.508724
     8  H    0.204250
     9  H    0.198258
    10  H    0.171669
    11  H    0.209171
    12  H    0.264154
 Sum of Mulliken charges =  -0.00000

 Dipole moment (field-independent basis, Debye):
    X=             -2.8987    Y=              3.0822    Z=              0.7589  Tot=              4.2987
 Quadrupole moment (field-independent basis, Debye-Ang):
   XX=            -38.7690   YY=            -34.7270   ZZ=            -36.0614
   XY=             -1.7711   XZ=             -0.3679   YZ=             -1.2075

  Exact polarizability:   0.000   0.000   0.000   0.000   0.000   0.000
 Approx polarizability:  64.635  -5.502  80.106   2.560  -2.178  60.081

 Normal termination of Gaussian 16 at Wed Dec 23 22:46:00 2020.
