 Gaussian 16, Revision B.01,
 Gaussian 16:  ES64L-G16RevB.01 20-Dec-2017

 ----------------------------------------------------------------------
 # B3LYP/6-31+G* IRC=(CALCALL, maxpoints=40, StepSize=15, maxcyc=100, R
 eport=Cartesians)
 ----------------------------------------------------------------------

 -----------
 pp_19_0 IRC
 -----------
 Symbolic Z-matrix:
 Charge =  0 Multiplicity = 1

 SCF Done:  E(RB3LYP) =  -343.387047008     A.U. after   13 cycles
 SCF Done:  E(RB3LYP) =  -343.389163994     A.U. after   13 cycles
 SCF Done:  E(RB3LYP) =  -343.395170719     A.U. after   13 cycles
 SCF Done:  E(RB3LYP) =  -343.404233664     A.U. after   13 cycles
 SCF Done:  E(RB3LYP) =  -343.415313249     A.U. after   13 cycles
 SCF Done:  E(RB3LYP) =  -343.427326433     A.U. after   13 cycles
 SCF Done:  E(RB3LYP) =  -343.439249182     A.U. after   12 cycles
 SCF Done:  E(RB3LYP) =  -343.450241680     A.U. after   12 cycles
 SCF Done:  E(RB3LYP) =  -343.459801728     A.U. after   12 cycles
 SCF Done:  E(RB3LYP) =  -343.467799155     A.U. after   12 cycles
 SCF Done:  E(RB3LYP) =  -343.478491067     A.U. after   10 cycles
 SCF Done:  E(RB3LYP) =  -343.478738623     A.U. after   10 cycles
 SCF Done:  E(RB3LYP) =  -343.478949724     A.U. after   10 cycles
 SCF Done:  E(RB3LYP) =  -343.479128906     A.U. after   10 cycles
 SCF Done:  E(RB3LYP) =  -343.479280842     A.U. after   10 cycles
 SCF Done:  E(RB3LYP) =  -343.479410261     A.U. after   10 cycles
 SCF Done:  E(RB3LYP) =  -343.479521887     A.U. after   10 cycles
 SCF Done:  E(RB3LYP) =  -343.479620251     A.U. after   10 cycles
 SCF Done:  E(RB3LYP) =  -343.479709277     A.U. after   10 cycles
 SCF Done:  E(RB3LYP) =  -343.479791884     A.U. after   10 cycles

                          Input orientation:
 ---------------------------------------------------------------------
 Center     Atomic      Atomic             Coordinates (Angstroms)
 Number     Number       Type             X           Y           Z
 ---------------------------------------------------------------------
      1          6           0       -0.729308    1.034735    0.172715
      2          6           0        0.509507    0.282816    0.563577
      3          6           0        1.547857    0.142910   -0.271794
      4          8           0       -1.660587    0.261164   -0.608520
      5          8           0       -2.105248   -0.850763    0.218935
      6          8           0        2.682620   -0.576404   -0.051438
      7          1           0       -1.607138   -1.585213   -0.184567
      8          1           0       -1.250418    1.429136    1.052809
      9          1           0       -0.510030    1.866231   -0.508010
     10          1           0        1.579734    0.606632   -1.254340
     11          1           0        2.645727   -0.992446    0.826458
     12          1           0        0.520609   -0.208478    1.536306
 ---------------------------------------------------------------------

 Alpha  occ. eigenvalues --  -19.21446 -19.21380 -19.20966 -10.26872 -10.25095
 Alpha  occ. eigenvalues --  -10.19782  -1.12125  -1.08392  -0.91933  -0.78911
 Alpha  occ. eigenvalues --   -0.68374  -0.62453  -0.54738  -0.51886  -0.49561
 Alpha  occ. eigenvalues --   -0.46918  -0.43537  -0.43012  -0.41063  -0.38626
 Alpha  occ. eigenvalues --   -0.37103  -0.30691  -0.28080  -0.25142
 Alpha virt. eigenvalues --   -0.01317  -0.00947   0.00448   0.01942   0.02188
 Alpha virt. eigenvalues --    0.03539   0.05542   0.06784   0.07922   0.08439
 Alpha virt. eigenvalues --    0.10208   0.10565   0.12073   0.14426   0.16106

 Mulliken charges:
               1
     1  C   -0.392279
     2  C   -0.084239
     3  C    0.016022
     4  O   -0.160658
     5  O   -0.490808
     6  O   -0.586846
     7  H    0.463335
     8  H    0.196844
     9  H    0.200542
    10  H    0.196014
    11  H    0.463264
    12  H    0.178808
 Sum of Mulliken charges =  -0.00000

 Dipole moment (field-independent basis, Debye):
    X=              1.9526    Y=             -0.5300    Z=              1.1706  Tot=              2.3375
 Quadrupole moment (field-independent basis, Debye-Ang):
   XX=            -46.0380   YY=            -31.3912   ZZ=            -34.5744
   XY=             -0.9072   XZ=              2.3594   YZ=             -1.7285

  Exact polarizability:   0.000   0.000   0.000   0.000   0.000   0.000
 Approx polarizability:  84.358  -4.780  66.739 -12.619  -4.399  68.493

 Normal termination of Gaussian 16 at Wed Dec 23 22:39:04 2020.
