 Gaussian 16, Revision B.01,
 Gaussian 16:  ES64L-G16RevB.01 20-Dec-2017

 ----------------------------------------------------------------------
 # B3LYP/6-31+G* IRC=(CALCALL, maxpoints=40, StepSize=15, maxcyc=100, R
 eport=Cartesians)
 ----------------------------------------------------------------------

 -----------
 pp_16_0 IRC
 -----------
 Symbolic Z-matrix:
 Charge =  0 Multiplicity = 1

 SCF Done:  E(RB3LYP) =  -343.361332214     A.U. after   14 cycles
 SCF Done:  E(RB3LYP) =  -343.362842695     A.U. after   13 cycles
 SCF Done:  E(RB3LYP) =  -343.367340672     A.U. after   12 cycles
 SCF Done:  E(RB3LYP) =  -343.374592796     A.U. after   12 cycles
 SCF Done:  E(RB3LYP) =  -343.384204494     A.U. after   12 cycles
 SCF Done:  E(RB3LYP) =  -343.395571871     A.U. after   12 cycles
 SCF Done:  E(RB3LYP) =  -343.407768926     A.U. after   12 cycles
 SCF Done:  E(RB3LYP) =  -343.419438798     A.U. after   12 cycles
 SCF Done:  E(RB3LYP) =  -343.429000901     A.U. after   12 cycles
 SCF Done:  E(RB3LYP) =  -343.436005978     A.U. after   11 cycles
 SCF Done:  E(RB3LYP) =  -343.497365705     A.U. after   11 cycles
 SCF Done:  E(RB3LYP) =  -343.497568906     A.U. after   11 cycles
 SCF Done:  E(RB3LYP) =  -343.497763035     A.U. after   11 cycles
 SCF Done:  E(RB3LYP) =  -343.497948756     A.U. after   11 cycles
 SCF Done:  E(RB3LYP) =  -343.498126087     A.U. after   11 cycles
 SCF Done:  E(RB3LYP) =  -343.498294765     A.U. after   11 cycles
 SCF Done:  E(RB3LYP) =  -343.498454402     A.U. after   11 cycles
 SCF Done:  E(RB3LYP) =  -343.498604566     A.U. after   11 cycles
 SCF Done:  E(RB3LYP) =  -343.498744861     A.U. after   11 cycles
 SCF Done:  E(RB3LYP) =  -343.498875016     A.U. after   11 cycles

                          Input orientation:
 ---------------------------------------------------------------------
 Center     Atomic      Atomic             Coordinates (Angstroms)
 Number     Number       Type             X           Y           Z
 ---------------------------------------------------------------------
      1          6           0       -0.339870   -0.509257   -0.324389
      2          6           0        0.450697    0.718122    0.135458
      3          6           0        1.951120    0.547586    0.017098
      4          8           0       -1.595467   -0.648649    0.328765
      5          8           0       -2.435043    0.474578   -0.092035
      6          8           0        2.520263   -0.523741   -0.043550
      7          1           0       -3.214549   -0.015151   -0.410013
      8          1           0       -0.480652   -0.510342   -1.412943
      9          1           0        0.185570   -1.425653   -0.035700
     10          1           0        2.541113    1.489640    0.023706
     11          1           0        0.243942    0.898632    1.203053
     12          1           0        0.142050    1.630717   -0.388045
 ---------------------------------------------------------------------

 Alpha  occ. eigenvalues --  -19.22690 -19.22394 -19.17411 -10.29883 -10.25440
 Alpha  occ. eigenvalues --  -10.21396  -1.13136  -1.06706  -0.93500  -0.78751
 Alpha  occ. eigenvalues --   -0.66800  -0.58652  -0.53903  -0.51162  -0.49742
 Alpha  occ. eigenvalues --   -0.45929  -0.45063  -0.44464  -0.40994  -0.38585
 Alpha  occ. eigenvalues --   -0.36254  -0.33298  -0.28389  -0.26986
 Alpha virt. eigenvalues --   -0.04769  -0.01247   0.00935   0.01060   0.03357
 Alpha virt. eigenvalues --    0.03961   0.05166   0.06797   0.07151   0.08772
 Alpha virt. eigenvalues --    0.09368   0.11340   0.12344   0.13076   0.15760

 Mulliken charges:
               1
     1  C   -0.196294
     2  C   -0.417681
     3  C    0.114144
     4  O   -0.155396
     5  O   -0.544031
     6  O   -0.363878
     7  H    0.481083
     8  H    0.200415
     9  H    0.234709
    10  H    0.162567
    11  H    0.252332
    12  H    0.232028
 Sum of Mulliken charges =  -0.00000

 Dipole moment (field-independent basis, Debye):
    X=             -1.4370    Y=              1.4933    Z=             -1.0458  Tot=              2.3213
 Quadrupole moment (field-independent basis, Debye-Ang):
   XX=            -37.8170   YY=            -36.1272   ZZ=            -35.3210
   XY=              6.3067   XZ=              3.7351   YZ=              0.6845

  Exact polarizability:   0.000   0.000   0.000   0.000   0.000   0.000
 Approx polarizability:  72.946 -12.308  75.568   0.006  -0.835  53.018

 Normal termination of Gaussian 16 at Wed Dec 23 23:52:01 2020.
