 Gaussian 16, Revision B.01,
 Gaussian 16:  ES64L-G16RevB.01 20-Dec-2017

 ----------------------------------------------------------------------
 # B3LYP/6-31+G* IRC=(CALCALL, maxpoints=40, StepSize=15, maxcyc=100, R
 eport=Cartesians)
 ----------------------------------------------------------------------

 -----------
 pp_10_0 IRC
 -----------
 Symbolic Z-matrix:
 Charge =  0 Multiplicity = 1

 SCF Done:  E(RB3LYP) =  -343.373027630     A.U. after   16 cycles
 SCF Done:  E(RB3LYP) =  -343.373715407     A.U. after   13 cycles
 SCF Done:  E(RB3LYP) =  -343.375765991     A.U. after   13 cycles
 SCF Done:  E(RB3LYP) =  -343.379094319     A.U. after   13 cycles
 SCF Done:  E(RB3LYP) =  -343.383521002     A.U. after   13 cycles
 SCF Done:  E(RB3LYP) =  -343.388767214     A.U. after   12 cycles
 SCF Done:  E(RB3LYP) =  -343.394510736     A.U. after   12 cycles
 SCF Done:  E(RB3LYP) =  -343.400473591     A.U. after   12 cycles
 SCF Done:  E(RB3LYP) =  -343.406462884     A.U. after   12 cycles
 SCF Done:  E(RB3LYP) =  -343.412352520     A.U. after   12 cycles
 SCF Done:  E(RB3LYP) =  -343.523938371     A.U. after   10 cycles
 SCF Done:  E(RB3LYP) =  -343.525118100     A.U. after   10 cycles
 SCF Done:  E(RB3LYP) =  -343.526239569     A.U. after   10 cycles
 SCF Done:  E(RB3LYP) =  -343.527313659     A.U. after   10 cycles
 SCF Done:  E(RB3LYP) =  -343.528345188     A.U. after   10 cycles
 SCF Done:  E(RB3LYP) =  -343.529334873     A.U. after   10 cycles
 SCF Done:  E(RB3LYP) =  -343.530281193     A.U. after   10 cycles
 SCF Done:  E(RB3LYP) =  -343.531181632     A.U. after   10 cycles
 SCF Done:  E(RB3LYP) =  -343.532033409     A.U. after   10 cycles
 SCF Done:  E(RB3LYP) =  -343.532833874     A.U. after   10 cycles

                          Input orientation:
 ---------------------------------------------------------------------
 Center     Atomic      Atomic             Coordinates (Angstroms)
 Number     Number       Type             X           Y           Z
 ---------------------------------------------------------------------
      1          6           0        1.367544   -1.611784   -0.621128
      2          6           0        1.559079   -0.246141    0.079843
      3          6           0        0.240678    0.480851    0.048506
      4          8           0       -0.687985   -0.219995    0.756891
      5          8           0       -2.031099    0.094273    0.326066
      6          8           0       -0.051677    1.467577   -0.597052
      7          1           0       -1.888449    0.966336   -0.116493
      8          1           0        0.796755   -1.500458   -1.550459
      9          1           0        0.827855   -2.308653    0.025936
     10          1           0        2.339594   -2.048719   -0.874321
     11          1           0        2.286945    0.381614   -0.440656
     12          1           0        1.898807   -0.389737    1.111760
 ---------------------------------------------------------------------

 Alpha  occ. eigenvalues --  -19.26705 -19.23881 -19.18186 -10.34912 -10.22959
 Alpha  occ. eigenvalues --  -10.20712  -1.18483  -1.07373  -0.95734  -0.80588
 Alpha  occ. eigenvalues --   -0.68034  -0.62915  -0.53900  -0.51361  -0.49706
 Alpha  occ. eigenvalues --   -0.47206  -0.44093  -0.42116  -0.41197  -0.39761
 Alpha  occ. eigenvalues --   -0.37934  -0.37424  -0.31663  -0.29826
 Alpha virt. eigenvalues --   -0.04322  -0.01454   0.00259   0.02309   0.03461
 Alpha virt. eigenvalues --    0.03938   0.06728   0.06776   0.07734   0.07851
 Alpha virt. eigenvalues --    0.08213   0.10644   0.11110   0.14074   0.16958

 Mulliken charges:
               1
     1  C   -0.660990
     2  C   -0.396510
     3  C    0.453176
     4  O   -0.075322
     5  O   -0.442520
     6  O   -0.494436
     7  H    0.479127
     8  H    0.220666
     9  H    0.234107
    10  H    0.213020
    11  H    0.235651
    12  H    0.234029
 Sum of Mulliken charges =  -0.00000

 Dipole moment (field-independent basis, Debye):
    X=              2.2429    Y=             -0.8728    Z=             -0.0604  Tot=              2.4075
 Quadrupole moment (field-independent basis, Debye-Ang):
   XX=            -34.4265   YY=            -37.8328   ZZ=            -37.0551
   XY=             -3.5111   XZ=              2.0733   YZ=              2.0189

  Exact polarizability:   0.000   0.000   0.000   0.000   0.000   0.000
 Approx polarizability:  75.103  -2.137  68.575  -0.386 -11.352  59.086

 Normal termination of Gaussian 16 at Wed Dec 23 22:47:09 2020.
