 Gaussian 16, Revision B.01,
 Gaussian 16:  ES64L-G16RevB.01 20-Dec-2017

 ----------------------------------------------------------------------
 # B3LYP/6-31+G* IRC=(CALCALL, maxpoints=40, StepSize=15, maxcyc=100, R
 eport=Cartesians)
 ----------------------------------------------------------------------

 -----------
 pp_14_1 IRC
 -----------
 Symbolic Z-matrix:
 Charge =  0 Multiplicity = 1

 SCF Done:  E(RB3LYP) =  -343.416560406     A.U. after   15 cycles
 SCF Done:  E(RB3LYP) =  -343.417629946     A.U. after   13 cycles
 SCF Done:  E(RB3LYP) =  -343.421474332     A.U. after   13 cycles
 SCF Done:  E(RB3LYP) =  -343.428797910     A.U. after   13 cycles
 SCF Done:  E(RB3LYP) =  -343.439768504     A.U. after   13 cycles
 SCF Done:  E(RB3LYP) =  -343.453751959     A.U. after   13 cycles
 SCF Done:  E(RB3LYP) =  -343.469294547     A.U. after   12 cycles
 SCF Done:  E(RB3LYP) =  -343.484365536     A.U. after   12 cycles
 SCF Done:  E(RB3LYP) =  -343.497099869     A.U. after   12 cycles
 SCF Done:  E(RB3LYP) =  -343.507191020     A.U. after   12 cycles
 SCF Done:  E(RB3LYP) =  -343.494108929     A.U. after   10 cycles
 SCF Done:  E(RB3LYP) =  -343.494336853     A.U. after   10 cycles
 SCF Done:  E(RB3LYP) =  -343.494554665     A.U. after   10 cycles
 SCF Done:  E(RB3LYP) =  -343.494764916     A.U. after   10 cycles
 SCF Done:  E(RB3LYP) =  -343.494968970     A.U. after   10 cycles
 SCF Done:  E(RB3LYP) =  -343.495167410     A.U. after   10 cycles
 SCF Done:  E(RB3LYP) =  -343.495360339     A.U. after   10 cycles
 SCF Done:  E(RB3LYP) =  -343.495547586     A.U. after   10 cycles
 SCF Done:  E(RB3LYP) =  -343.495728847     A.U. after   10 cycles
 SCF Done:  E(RB3LYP) =  -343.495903786     A.U. after   10 cycles

                          Input orientation:
 ---------------------------------------------------------------------
 Center     Atomic      Atomic             Coordinates (Angstroms)
 Number     Number       Type             X           Y           Z
 ---------------------------------------------------------------------
      1          6           0       -0.396149    0.478486   -0.666092
      2          6           0        0.642077    0.805927    0.415794
      3          6           0        1.931620    0.019293    0.316545
      4          8           0       -1.737001    0.559210   -0.192209
      5          8           0       -2.002685   -0.738709    0.448948
      6          8           0        2.086987   -0.979755   -0.354565
      7          1           0       -2.970731   -0.668022    0.531394
      8          1           0       -0.367799    1.213149   -1.478435
      9          1           0       -0.224428   -0.516120   -1.087774
     10          1           0        2.765586    0.401932    0.944877
     11          1           0        0.217187    0.566985    1.403556
     12          1           0        0.882020    1.877283    0.450161
 ---------------------------------------------------------------------

 Alpha  occ. eigenvalues --  -19.22427 -19.22179 -19.17098 -10.29595 -10.25221
 Alpha  occ. eigenvalues --  -10.21353  -1.12662  -1.06433  -0.93372  -0.78554
 Alpha  occ. eigenvalues --   -0.66608  -0.57963  -0.54811  -0.50784  -0.48472
 Alpha  occ. eigenvalues --   -0.46548  -0.45144  -0.42711  -0.41229  -0.37517
 Alpha  occ. eigenvalues --   -0.36197  -0.35759  -0.27886  -0.25670
 Alpha virt. eigenvalues --   -0.04306  -0.01487   0.00586   0.01572   0.03011
 Alpha virt. eigenvalues --    0.03944   0.05153   0.06714   0.07476   0.08499
 Alpha virt. eigenvalues --    0.09015   0.11414   0.12344   0.13134   0.15090

 Mulliken charges:
               1
     1  C   -0.269393
     2  C   -0.420307
     3  C    0.175305
     4  O   -0.134355
     5  O   -0.549657
     6  O   -0.364160
     7  H    0.480257
     8  H    0.205601
     9  H    0.244419
    10  H    0.158602
    11  H    0.255941
    12  H    0.217748
 Sum of Mulliken charges =  -0.00000

 Dipole moment (field-independent basis, Debye):
    X=             -0.8758    Y=              2.3196    Z=              0.9692  Tot=              2.6621
 Quadrupole moment (field-independent basis, Debye-Ang):
   XX=            -33.1842   YY=            -38.0343   ZZ=            -34.8727
   XY=              6.7901   XZ=              1.4962   YZ=             -1.3217

  Exact polarizability:   0.000   0.000   0.000   0.000   0.000   0.000
 Approx polarizability:  64.173   0.037  75.143  -3.524   4.759  61.240

 Normal termination of Gaussian 16 at Wed Dec 23 22:38:59 2020.
