 Gaussian 16, Revision B.01,
 Gaussian 16:  ES64L-G16RevB.01 20-Dec-2017

 ----------------------------------------------------------------------
 # B3LYP/6-31+G* IRC=(CALCALL, maxpoints=40, StepSize=15, maxcyc=100, R
 eport=Cartesians)
 ----------------------------------------------------------------------

 -----------
 pp_13_2 IRC
 -----------
 Symbolic Z-matrix:
 Charge =  0 Multiplicity = 1

 SCF Done:  E(RB3LYP) =  -343.340688588     A.U. after   16 cycles
 SCF Done:  E(RB3LYP) =  -343.342372523     A.U. after   13 cycles
 SCF Done:  E(RB3LYP) =  -343.347025736     A.U. after   13 cycles
 SCF Done:  E(RB3LYP) =  -343.353742836     A.U. after   13 cycles
 SCF Done:  E(RB3LYP) =  -343.361588035     A.U. after   13 cycles
 SCF Done:  E(RB3LYP) =  -343.369861494     A.U. after   13 cycles
 SCF Done:  E(RB3LYP) =  -343.378111821     A.U. after   12 cycles
 SCF Done:  E(RB3LYP) =  -343.386052126     A.U. after   12 cycles
 SCF Done:  E(RB3LYP) =  -343.393503434     A.U. after   12 cycles
 SCF Done:  E(RB3LYP) =  -343.400363303     A.U. after   12 cycles
 SCF Done:  E(RB3LYP) =  -343.496911227     A.U. after   11 cycles
 SCF Done:  E(RB3LYP) =  -343.497034892     A.U. after   11 cycles
 SCF Done:  E(RB3LYP) =  -343.497145054     A.U. after   11 cycles
 SCF Done:  E(RB3LYP) =  -343.497246622     A.U. after   10 cycles
 SCF Done:  E(RB3LYP) =  -343.497343799     A.U. after   10 cycles
 SCF Done:  E(RB3LYP) =  -343.497439414     A.U. after   10 cycles
 SCF Done:  E(RB3LYP) =  -343.497534958     A.U. after   10 cycles
 SCF Done:  E(RB3LYP) =  -343.497631058     A.U. after   10 cycles
 SCF Done:  E(RB3LYP) =  -343.497727870     A.U. after   10 cycles
 SCF Done:  E(RB3LYP) =  -343.497825308     A.U. after   10 cycles

                          Input orientation:
 ---------------------------------------------------------------------
 Center     Atomic      Atomic             Coordinates (Angstroms)
 Number     Number       Type             X           Y           Z
 ---------------------------------------------------------------------
      1          6           0       -0.391264   -0.096007    0.358269
      2          6           0        0.746717    0.886212    0.086799
      3          6           0        2.106483    0.236751   -0.048801
      4          8           0       -1.545748    0.479510   -0.261286
      5          8           0       -2.658976   -0.417165    0.012444
      6          8           0        2.312248   -0.958484   -0.066865
      7          1           0       -2.847309   -0.747056   -0.885489
      8          1           0       -0.175445   -1.074956   -0.083674
      9          1           0       -0.574706   -0.223894    1.431305
     10          1           0        2.951813    0.950444   -0.155707
     11          1           0        0.807717    1.675648    0.848095
     12          1           0        0.559038    1.414387   -0.862313
 ---------------------------------------------------------------------

 Alpha  occ. eigenvalues --  -19.22490 -19.22238 -19.17788 -10.30311 -10.25216
 Alpha  occ. eigenvalues --  -10.22373  -1.13163  -1.07147  -0.93190  -0.79135
 Alpha  occ. eigenvalues --   -0.67039  -0.58414  -0.54859  -0.51821  -0.48428
 Alpha  occ. eigenvalues --   -0.47488  -0.45065  -0.43716  -0.41788  -0.38042
 Alpha  occ. eigenvalues --   -0.37556  -0.32057  -0.28223  -0.27831
 Alpha virt. eigenvalues --   -0.04845  -0.00611   0.00306   0.01085   0.03196
 Alpha virt. eigenvalues --    0.03695   0.04963   0.06843   0.07401   0.08201
 Alpha virt. eigenvalues --    0.08700   0.11187   0.12472   0.13194   0.14210

 Mulliken charges:
               1
     1  C   -0.271312
     2  C   -0.399116
     3  C    0.166991
     4  O   -0.145806
     5  O   -0.525102
     6  O   -0.361708
     7  H    0.470459
     8  H    0.216185
     9  H    0.205758
    10  H    0.163162
    11  H    0.233537
    12  H    0.246952
 Sum of Mulliken charges =  -0.00000

 Dipole moment (field-independent basis, Debye):
    X=              0.3996    Y=              1.5118    Z=             -0.8334  Tot=              1.7719
 Quadrupole moment (field-independent basis, Debye-Ang):
   XX=            -40.5289   YY=            -37.1131   ZZ=            -33.4002
   XY=              9.2933   XZ=              4.2428   YZ=              1.6358

  Exact polarizability:   0.000   0.000   0.000   0.000   0.000   0.000
 Approx polarizability:  71.312   2.620  77.819  -0.068  -0.723  52.758

 Normal termination of Gaussian 16 at Wed Dec 23 22:38:45 2020.
