 Gaussian 16, Revision B.01,
 Gaussian 16:  ES64L-G16RevB.01 20-Dec-2017

 ----------------------------------------------------------------------
 # B3LYP/6-31+G* IRC=(CALCALL, maxpoints=40, StepSize=15, maxcyc=100, R
 eport=Cartesians)
 ----------------------------------------------------------------------

 -----------
 pp_12_1 IRC
 -----------
 Symbolic Z-matrix:
 Charge =  0 Multiplicity = 1

 SCF Done:  E(RB3LYP) =  -343.388625143     A.U. after   17 cycles
 SCF Done:  E(RB3LYP) =  -343.389280042     A.U. after   12 cycles
 SCF Done:  E(RB3LYP) =  -343.391014976     A.U. after   12 cycles
 SCF Done:  E(RB3LYP) =  -343.393466763     A.U. after   13 cycles
 SCF Done:  E(RB3LYP) =  -343.396364017     A.U. after   12 cycles
 SCF Done:  E(RB3LYP) =  -343.399504250     A.U. after   12 cycles
 SCF Done:  E(RB3LYP) =  -343.402752202     A.U. after   12 cycles
 SCF Done:  E(RB3LYP) =  -343.406023997     A.U. after   12 cycles
 SCF Done:  E(RB3LYP) =  -343.409268554     A.U. after   12 cycles
 SCF Done:  E(RB3LYP) =  -343.412452266     A.U. after   12 cycles
 SCF Done:  E(RB3LYP) =  -343.492492021     A.U. after   11 cycles
 SCF Done:  E(RB3LYP) =  -343.492804341     A.U. after   11 cycles
 SCF Done:  E(RB3LYP) =  -343.493107590     A.U. after   11 cycles
 SCF Done:  E(RB3LYP) =  -343.493403577     A.U. after   11 cycles
 SCF Done:  E(RB3LYP) =  -343.493693141     A.U. after   11 cycles
 SCF Done:  E(RB3LYP) =  -343.493976729     A.U. after   11 cycles
 SCF Done:  E(RB3LYP) =  -343.494254601     A.U. after   11 cycles
 SCF Done:  E(RB3LYP) =  -343.494526839     A.U. after   11 cycles
 SCF Done:  E(RB3LYP) =  -343.494793298     A.U. after   11 cycles
 SCF Done:  E(RB3LYP) =  -343.495053596     A.U. after   11 cycles

                          Input orientation:
 ---------------------------------------------------------------------
 Center     Atomic      Atomic             Coordinates (Angstroms)
 Number     Number       Type             X           Y           Z
 ---------------------------------------------------------------------
      1          6           0       -0.495275    0.214186   -0.661620
      2          6           0        0.773951    0.911500   -0.129289
      3          6           0        1.720116   -0.078274    0.521964
      4          8           0       -1.476529    0.305484    0.374184
      5          8           0       -2.548779   -0.610577    0.006649
      6          8           0        2.596882   -0.648263   -0.095587
      7          1           0       -3.295578    0.011274   -0.069962
      8          1           0       -0.863940    0.712994   -1.567881
      9          1           0       -0.309911   -0.840535   -0.893829
     10          1           0        1.561189   -0.295046    1.598765
     11          1           0        0.479097    1.695922    0.578833
     12          1           0        1.300016    1.374485   -0.970718
 ---------------------------------------------------------------------

 Alpha  occ. eigenvalues --  -19.23233 -19.22944 -19.17259 -10.29559 -10.26486
 Alpha  occ. eigenvalues --  -10.22001  -1.13843  -1.06489  -0.93945  -0.78875
 Alpha  occ. eigenvalues --   -0.66614  -0.59141  -0.55823  -0.50593  -0.49682
 Alpha  occ. eigenvalues --   -0.47646  -0.45319  -0.41570  -0.41071  -0.40359
 Alpha  occ. eigenvalues --   -0.37337  -0.33317  -0.28608  -0.27093
 Alpha virt. eigenvalues --   -0.05225  -0.01345   0.00568   0.02150   0.02368
 Alpha virt. eigenvalues --    0.03504   0.05321   0.06599   0.07350   0.07617
 Alpha virt. eigenvalues --    0.09362   0.11123   0.11336   0.12682   0.15318

 Mulliken charges:
               1
     1  C   -0.203912
     2  C   -0.467384
     3  C    0.158663
     4  O   -0.150262
     5  O   -0.505975
     6  O   -0.347822
     7  H    0.469733
     8  H    0.190192
     9  H    0.217727
    10  H    0.173492
    11  H    0.229137
    12  H    0.236412
 Sum of Mulliken charges =  -0.00000

 Dipole moment (field-independent basis, Debye):
    X=             -2.2270    Y=              2.5494    Z=             -0.3651  Tot=              3.4048
 Quadrupole moment (field-independent basis, Debye-Ang):
   XX=            -38.9214   YY=            -36.8696   ZZ=            -35.1567
   XY=              1.0140   XZ=              4.0917   YZ=             -0.7344

  Exact polarizability:   0.000   0.000   0.000   0.000   0.000   0.000
 Approx polarizability:  77.643  -2.291  61.097  -4.840   3.696  62.245

 Normal termination of Gaussian 16 at Wed Dec 23 22:46:06 2020.
