 Gaussian 16, Revision B.01,
 Gaussian 16:  ES64L-G16RevB.01 20-Dec-2017

 ----------------------------------------------------------------------
 # B3LYP/6-31+G* IRC=(CALCALL, maxpoints=40, StepSize=15, maxcyc=100, R
 eport=Cartesians)
 ----------------------------------------------------------------------

 -----------
 pp_15_1 IRC
 -----------
 Symbolic Z-matrix:
 Charge =  0 Multiplicity = 1

 SCF Done:  E(RB3LYP) =  -343.392231596     A.U. after   17 cycles
 SCF Done:  E(RB3LYP) =  -343.393485029     A.U. after   13 cycles
 SCF Done:  E(RB3LYP) =  -343.397166362     A.U. after   13 cycles
 SCF Done:  E(RB3LYP) =  -343.402929813     A.U. after   13 cycles
 SCF Done:  E(RB3LYP) =  -343.410241743     A.U. after   13 cycles
 SCF Done:  E(RB3LYP) =  -343.418507230     A.U. after   12 cycles
 SCF Done:  E(RB3LYP) =  -343.427156619     A.U. after   12 cycles
 SCF Done:  E(RB3LYP) =  -343.435698427     A.U. after   12 cycles
 SCF Done:  E(RB3LYP) =  -343.443758526     A.U. after   12 cycles
 SCF Done:  E(RB3LYP) =  -343.451104610     A.U. after   12 cycles
 SCF Done:  E(RB3LYP) =  -343.512200003     A.U. after   12 cycles
 SCF Done:  E(RB3LYP) =  -343.525429183     A.U. after   12 cycles
 SCF Done:  E(RB3LYP) =  -343.538512098     A.U. after   12 cycles
 SCF Done:  E(RB3LYP) =  -343.548704245     A.U. after   12 cycles
 SCF Done:  E(RB3LYP) =  -343.553974964     A.U. after   12 cycles
 SCF Done:  E(RB3LYP) =  -343.557256394     A.U. after   11 cycles
 SCF Done:  E(RB3LYP) =  -343.559876535     A.U. after   11 cycles
 SCF Done:  E(RB3LYP) =  -343.562127430     A.U. after   10 cycles
 SCF Done:  E(RB3LYP) =  -343.564105619     A.U. after   10 cycles
 SCF Done:  E(RB3LYP) =  -343.565859763     A.U. after   10 cycles

                          Input orientation:
 ---------------------------------------------------------------------
 Center     Atomic      Atomic             Coordinates (Angstroms)
 Number     Number       Type             X           Y           Z
 ---------------------------------------------------------------------
      1          6           0        0.350086   -0.557012   -0.879857
      2          6           0       -0.644852   -1.122907    0.105976
      3          6           0       -1.767347   -0.136319    0.424002
      4          8           0        0.820447    0.554037   -0.775738
      5          8           0        2.406210    0.040592    0.865258
      6          8           0       -1.794311    1.016580    0.065826
      7          1           0        3.240896    0.510223    1.007038
      8          1           0        0.616951   -1.192104   -1.746854
      9          1           0        1.763616    0.721753    0.607750
     10          1           0       -2.592088   -0.563847    1.034063
     11          1           0       -0.130306   -1.355572    1.051880
     12          1           0       -1.078212   -2.065866   -0.253384
 ---------------------------------------------------------------------

 Alpha  occ. eigenvalues --  -19.17994 -19.17724 -19.14209 -10.30855 -10.30169
 Alpha  occ. eigenvalues --  -10.23083  -1.08320  -1.07071  -0.99955  -0.80035
 Alpha  occ. eigenvalues --   -0.64891  -0.58085  -0.53750  -0.51894  -0.49370
 Alpha  occ. eigenvalues --   -0.46287  -0.45893  -0.44004  -0.39788  -0.38459
 Alpha  occ. eigenvalues --   -0.37681  -0.30057  -0.29274  -0.26791
 Alpha virt. eigenvalues --   -0.05884  -0.05087  -0.00020   0.01886   0.02594
 Alpha virt. eigenvalues --    0.03520   0.05572   0.05808   0.07402   0.08479
 Alpha virt. eigenvalues --    0.08858   0.11378   0.12432   0.13146   0.15680

 Mulliken charges:
               1
     1  C    0.204557
     2  C   -0.514715
     3  C    0.132427
     4  O   -0.356498
     5  O   -0.973390
     6  O   -0.314228
     7  H    0.473115
     8  H    0.169929
     9  H    0.501988
    10  H    0.167322
    11  H    0.283674
    12  H    0.225817
 Sum of Mulliken charges =  -0.00000

 Dipole moment (field-independent basis, Debye):
    X=             -0.6782    Y=             -2.8884    Z=              0.4033  Tot=              2.9942
 Quadrupole moment (field-independent basis, Debye-Ang):
   XX=            -33.9714   YY=            -35.8192   ZZ=            -35.5460
   XY=              8.1443   XZ=             -0.4443   YZ=              3.0663

  Exact polarizability:   0.000   0.000   0.000   0.000   0.000   0.000
 Approx polarizability:  62.766   5.002  84.607  -2.947  -3.182  55.906

 Normal termination of Gaussian 16 at Wed Dec 23 22:39:35 2020.
