 Gaussian 16, Revision B.01,
 Gaussian 16:  ES64L-G16RevB.01 20-Dec-2017

 ----------------------------------------------------------------------
 # B3LYP/6-31+G* IRC=(CALCALL, maxpoints=40, StepSize=15, maxcyc=100, R
 eport=Cartesians)
 ----------------------------------------------------------------------

 -----------
 pp_14_0 IRC
 -----------
 Symbolic Z-matrix:
 Charge =  0 Multiplicity = 1

 SCF Done:  E(RB3LYP) =  -343.416560407     A.U. after   15 cycles
 SCF Done:  E(RB3LYP) =  -343.417341186     A.U. after   14 cycles
 SCF Done:  E(RB3LYP) =  -343.419282303     A.U. after   13 cycles
 SCF Done:  E(RB3LYP) =  -343.421912126     A.U. after   13 cycles
 SCF Done:  E(RB3LYP) =  -343.424995192     A.U. after   13 cycles
 SCF Done:  E(RB3LYP) =  -343.428398222     A.U. after   13 cycles
 SCF Done:  E(RB3LYP) =  -343.432039544     A.U. after   13 cycles
 SCF Done:  E(RB3LYP) =  -343.435861907     A.U. after   12 cycles
 SCF Done:  E(RB3LYP) =  -343.439820268     A.U. after   12 cycles
 SCF Done:  E(RB3LYP) =  -343.443875795     A.U. after   12 cycles
 SCF Done:  E(RB3LYP) =  -343.568289281     A.U. after   10 cycles
 SCF Done:  E(RB3LYP) =  -343.569075607     A.U. after   10 cycles
 SCF Done:  E(RB3LYP) =  -343.569802814     A.U. after   10 cycles
 SCF Done:  E(RB3LYP) =  -343.570476037     A.U. after   10 cycles
 SCF Done:  E(RB3LYP) =  -343.571099974     A.U. after   10 cycles
 SCF Done:  E(RB3LYP) =  -343.571678959     A.U. after   10 cycles
 SCF Done:  E(RB3LYP) =  -343.572216978     A.U. after   10 cycles
 SCF Done:  E(RB3LYP) =  -343.572717670     A.U. after   10 cycles
 SCF Done:  E(RB3LYP) =  -343.573184356     A.U. after   10 cycles
 SCF Done:  E(RB3LYP) =  -343.573620085     A.U. after   10 cycles

                          Input orientation:
 ---------------------------------------------------------------------
 Center     Atomic      Atomic             Coordinates (Angstroms)
 Number     Number       Type             X           Y           Z
 ---------------------------------------------------------------------
      1          6           0        0.414196    0.726293   -0.545293
      2          6           0       -0.743015    0.952044    0.418305
      3          6           0       -1.930797    0.028459    0.273359
      4          8           0        1.522883    1.162856   -0.342155
      5          8           0        2.090158   -1.388698    0.457203
      6          8           0       -1.923958   -1.019764   -0.339619
      7          1           0        2.690579   -2.028303    0.870923
      8          1           0        1.533203   -1.918287   -0.136222
      9          1           0        0.179932    0.160210   -1.469149
     10          1           0       -2.854542    0.361033    0.794378
     11          1           0       -1.087798    1.992997    0.313112
     12          1           0       -0.363489    0.878474    1.448239
 ---------------------------------------------------------------------

 Alpha  occ. eigenvalues --  -19.18343 -19.16517 -19.16365 -10.30814 -10.29062
 Alpha  occ. eigenvalues --  -10.22499  -1.07631  -1.05846  -1.01909  -0.79522
 Alpha  occ. eigenvalues --   -0.63949  -0.57793  -0.53970  -0.50766  -0.48745
 Alpha  occ. eigenvalues --   -0.47441  -0.43747  -0.43391  -0.41027  -0.39150
 Alpha  occ. eigenvalues --   -0.36226  -0.31653  -0.29340  -0.26001
 Alpha virt. eigenvalues --   -0.05592  -0.04292   0.00169   0.00571   0.02933
 Alpha virt. eigenvalues --    0.03396   0.05543   0.06391   0.07087   0.08153
 Alpha virt. eigenvalues --    0.09106   0.11343   0.11726   0.13063   0.14800

 Mulliken charges:
               1
     1  C    0.018184
     2  C   -0.362757
     3  C    0.117478
     4  O   -0.275043
     5  O   -0.936549
     6  O   -0.366402
     7  H    0.490201
     8  H    0.457850
     9  H    0.177647
    10  H    0.165160
    11  H    0.243554
    12  H    0.270678
 Sum of Mulliken charges =  -0.00000

 Dipole moment (field-independent basis, Debye):
    X=             -1.7590    Y=             -0.4315    Z=              1.0336  Tot=              2.0853
 Quadrupole moment (field-independent basis, Debye-Ang):
   XX=            -39.0783   YY=            -32.1684   ZZ=            -34.3025
   XY=            -12.9562   XZ=             -0.8556   YZ=             -0.7885

  Exact polarizability:   0.000   0.000   0.000   0.000   0.000   0.000
 Approx polarizability:  72.242   6.495  67.309   1.575  13.036  58.198

 Normal termination of Gaussian 16 at Wed Dec 23 22:39:14 2020.
