 Gaussian 16, Revision B.01,
 Gaussian 16:  ES64L-G16RevB.01 20-Dec-2017

 ----------------------------------------------------------------------
 # B3LYP/6-31+G* IRC=(CALCALL, maxpoints=40, StepSize=15, maxcyc=100, R
 eport=Cartesians)
 ----------------------------------------------------------------------

 -----------
 pp_25_0 IRC
 -----------
 Symbolic Z-matrix:
 Charge =  0 Multiplicity = 1

 SCF Done:  E(RB3LYP) =  -343.394741186     A.U. after   13 cycles
 SCF Done:  E(RB3LYP) =  -343.396169526     A.U. after   12 cycles
 SCF Done:  E(RB3LYP) =  -343.400655844     A.U. after   12 cycles
 SCF Done:  E(RB3LYP) =  -343.407900319     A.U. after   12 cycles
 SCF Done:  E(RB3LYP) =  -343.416874729     A.U. after   12 cycles
 SCF Done:  E(RB3LYP) =  -343.426175118     A.U. after   12 cycles
 SCF Done:  E(RB3LYP) =  -343.434762301     A.U. after   12 cycles
 SCF Done:  E(RB3LYP) =  -343.442215380     A.U. after   11 cycles
 SCF Done:  E(RB3LYP) =  -343.448396661     A.U. after   11 cycles
 SCF Done:  E(RB3LYP) =  -343.453541657     A.U. after   11 cycles
 SCF Done:  E(RB3LYP) =  -343.492856479     A.U. after   10 cycles
 SCF Done:  E(RB3LYP) =  -343.493389511     A.U. after   10 cycles
 SCF Done:  E(RB3LYP) =  -343.493854162     A.U. after   10 cycles
 SCF Done:  E(RB3LYP) =  -343.494260057     A.U. after   10 cycles
 SCF Done:  E(RB3LYP) =  -343.494614460     A.U. after   10 cycles
 SCF Done:  E(RB3LYP) =  -343.494923083     A.U. after   10 cycles
 SCF Done:  E(RB3LYP) =  -343.495190583     A.U. after   10 cycles
 SCF Done:  E(RB3LYP) =  -343.495420788     A.U. after   10 cycles
 SCF Done:  E(RB3LYP) =  -343.495616840     A.U. after   10 cycles
 SCF Done:  E(RB3LYP) =  -343.495781392     A.U. after   10 cycles

                          Input orientation:
 ---------------------------------------------------------------------
 Center     Atomic      Atomic             Coordinates (Angstroms)
 Number     Number       Type             X           Y           Z
 ---------------------------------------------------------------------
      1          6           0        1.382259    0.816019   -0.237944
      2          6           0        0.012589    1.254132    0.252661
      3          6           0       -0.805397    0.014271   -0.062839
      4          8           0        1.412536   -0.584298    0.101202
      5          8           0        0.051410   -1.055614   -0.184701
      6          8           0       -1.987332   -0.123394   -0.234475
      7          1           0       -0.783188   -1.486379    2.572927
      8          1           0        1.491973    0.940782   -1.323560
      9          1           0        2.236015    1.257995    0.281719
     10          1           0       -1.248525   -1.092452    2.997742
     11          1           0       -0.407879    2.129149   -0.246615
     12          1           0       -0.000376    1.417000    1.337231
 ---------------------------------------------------------------------

 Alpha  occ. eigenvalues --  -19.26496 -19.24999 -19.17392 -10.34839 -10.28118
 Alpha  occ. eigenvalues --  -10.24025  -1.18179  -1.08052  -0.96199  -0.82354
 Alpha  occ. eigenvalues --   -0.67994  -0.61238  -0.55484  -0.52082  -0.49488
 Alpha  occ. eigenvalues --   -0.45653  -0.45460  -0.44425  -0.43104  -0.41785
 Alpha  occ. eigenvalues --   -0.40495  -0.36331  -0.30541  -0.29109
 Alpha virt. eigenvalues --   -0.03900  -0.02532  -0.00364   0.02070   0.02689
 Alpha virt. eigenvalues --    0.03179   0.05463   0.06074   0.07127   0.07397
 Alpha virt. eigenvalues --    0.09569   0.10847   0.12309   0.12661   0.13846

 Mulliken charges:
               1
     1  C   -0.185636
     2  C   -0.458399
     3  C    0.398001
     4  O   -0.162325
     5  O   -0.119512
     6  O   -0.432786
     7  H    0.023977
     8  H    0.210829
     9  H    0.218765
    10  H    0.000790
    11  H    0.248417
    12  H    0.257880
 Sum of Mulliken charges =  -0.00000

 Dipole moment (field-independent basis, Debye):
    X=              2.6005    Y=              3.6524    Z=              0.3651  Tot=              4.4984
 Quadrupole moment (field-independent basis, Debye-Ang):
   XX=            -41.9489   YY=            -35.3698   ZZ=            -34.8321
   XY=              2.1525   XZ=             -1.5040   YZ=             -0.1682

  Exact polarizability:   0.000   0.000   0.000   0.000   0.000   0.000
 Approx polarizability:  89.316  -0.679  63.241   2.209   3.142  52.170

 Normal termination of Gaussian 16 at Wed Dec 23 23:51:19 2020.
