 Gaussian 16, Revision B.01,
 Gaussian 16:  ES64L-G16RevB.01 20-Dec-2017

 ----------------------------------------------------------------------
 # B3LYP/6-31+G* IRC=(CALCALL, maxpoints=40, StepSize=15, maxcyc=100, R
 eport=Cartesians)
 ----------------------------------------------------------------------

 -----------
 pp_22_1 IRC
 -----------
 Symbolic Z-matrix:
 Charge =  0 Multiplicity = 1

 SCF Done:  E(RB3LYP) =  -343.442779949     A.U. after   13 cycles
 SCF Done:  E(RB3LYP) =  -343.444112625     A.U. after   12 cycles
 SCF Done:  E(RB3LYP) =  -343.447397205     A.U. after   12 cycles
 SCF Done:  E(RB3LYP) =  -343.451322262     A.U. after   11 cycles
 SCF Done:  E(RB3LYP) =  -343.455064928     A.U. after   11 cycles
 SCF Done:  E(RB3LYP) =  -343.458440130     A.U. after   11 cycles
 SCF Done:  E(RB3LYP) =  -343.461475256     A.U. after   11 cycles
 SCF Done:  E(RB3LYP) =  -343.464234187     A.U. after   11 cycles
 SCF Done:  E(RB3LYP) =  -343.466776575     A.U. after   11 cycles
 SCF Done:  E(RB3LYP) =  -343.469143896     A.U. after   11 cycles
 SCF Done:  E(RB3LYP) =  -343.509505239     A.U. after   11 cycles
 SCF Done:  E(RB3LYP) =  -343.509746003     A.U. after   11 cycles
 SCF Done:  E(RB3LYP) =  -343.509932337     A.U. after   11 cycles
 SCF Done:  E(RB3LYP) =  -343.510061299     A.U. after   10 cycles
 SCF Done:  E(RB3LYP) =  -343.510063530     A.U. after    9 cycles
 SCF Done:  E(RB3LYP) =  -343.510144557     A.U. after   10 cycles
 SCF Done:  E(RB3LYP) =  -343.510203630     A.U. after   10 cycles
 SCF Done:  E(RB3LYP) =  -343.510251175     A.U. after   10 cycles
 SCF Done:  E(RB3LYP) =  -343.510288211     A.U. after    9 cycles
 SCF Done:  E(RB3LYP) =  -343.510314452     A.U. after    9 cycles

                          Input orientation:
 ---------------------------------------------------------------------
 Center     Atomic      Atomic             Coordinates (Angstroms)
 Number     Number       Type             X           Y           Z
 ---------------------------------------------------------------------
      1          6           0       -1.209793    0.629919    0.491106
      2          6           0       -0.094811    1.252726   -0.346593
      3          6           0        0.850454    0.061505   -0.429657
      4          8           0       -1.322446   -0.712982    0.010833
      5          8           0        0.012518   -1.067529   -0.556379
      6          8           0        1.630087    0.034617    0.749456
      7          1           0        2.058150   -0.835031    0.813068
      8          1           0       -0.955609    0.632247    1.558260
      9          1           0       -2.189846    1.089844    0.330073
     10          1           0        1.487072    0.035675   -1.323714
     11          1           0        0.376980    2.116126    0.127185
     12          1           0       -0.450673    1.520999   -1.345773
 ---------------------------------------------------------------------

 Alpha  occ. eigenvalues --  -19.21902 -19.21415 -19.17803 -10.30811 -10.25241
 Alpha  occ. eigenvalues --  -10.21445  -1.13239  -1.04822  -0.93505  -0.80196
 Alpha  occ. eigenvalues --   -0.65224  -0.63328  -0.56567  -0.52709  -0.47905
 Alpha  occ. eigenvalues --   -0.47253  -0.43533  -0.40878  -0.40349  -0.37378
 Alpha  occ. eigenvalues --   -0.36294  -0.34558  -0.31237  -0.25377
 Alpha virt. eigenvalues --   -0.01845  -0.00100   0.01630   0.02181   0.03838
 Alpha virt. eigenvalues --    0.05109   0.06074   0.06785   0.07707   0.09274
 Alpha virt. eigenvalues --    0.10888   0.12870   0.13855   0.14604   0.17317

 Mulliken charges:
               1
     1  C   -0.189188
     2  C   -0.489761
     3  C    0.167722
     4  O   -0.208027
     5  O   -0.166805
     6  O   -0.651697
     7  H    0.475633
     8  H    0.210344
     9  H    0.206526
    10  H    0.191464
    11  H    0.231722
    12  H    0.222066
 Sum of Mulliken charges =  -0.00000

 Dipole moment (field-independent basis, Debye):
    X=              0.8899    Y=              2.0112    Z=             -0.3633  Tot=              2.2291
 Quadrupole moment (field-independent basis, Debye-Ang):
   XX=            -34.2552   YY=            -35.8920   ZZ=            -35.9571
   XY=             -6.1964   XZ=             -2.2349   YZ=             -2.1262

  Exact polarizability:   0.000   0.000   0.000   0.000   0.000   0.000
 Approx polarizability:  72.844  -1.783  63.911  -3.576   2.959  60.958

 Normal termination of Gaussian 16 at Wed Dec 23 22:43:51 2020.
