 Gaussian 16, Revision B.01,
 Gaussian 16:  ES64L-G16RevB.01 20-Dec-2017

 ----------------------------------------------------------------------
 # B3LYP/6-31+G* IRC=(CALCALL, maxpoints=40, StepSize=15, maxcyc=100, R
 eport=Cartesians)
 ----------------------------------------------------------------------

 -----------
 pp_21_1 IRC
 -----------
 Symbolic Z-matrix:
 Charge =  0 Multiplicity = 1

 SCF Done:  E(RB3LYP) =  -343.423679114     A.U. after   17 cycles
 SCF Done:  E(RB3LYP) =  -343.423705937     A.U. after   13 cycles
 SCF Done:  E(RB3LYP) =  -343.423719386     A.U. after   11 cycles
 SCF Done:  E(RB3LYP) =  -343.423719413     A.U. after   10 cycles
 SCF Done:  E(RB3LYP) =  -343.423799098     A.U. after   13 cycles
 SCF Done:  E(RB3LYP) =  -343.423801537     A.U. after   11 cycles
 SCF Done:  E(RB3LYP) =  -343.423904522     A.U. after   13 cycles
 SCF Done:  E(RB3LYP) =  -343.423908187     A.U. after   11 cycles
 SCF Done:  E(RB3LYP) =  -343.424063731     A.U. after   13 cycles
 SCF Done:  E(RB3LYP) =  -343.424066572     A.U. after   11 cycles
 SCF Done:  E(RB3LYP) =  -343.549171707     A.U. after   11 cycles
 SCF Done:  E(RB3LYP) =  -343.549173974     A.U. after    9 cycles
 SCF Done:  E(RB3LYP) =  -343.549253085     A.U. after   11 cycles
 SCF Done:  E(RB3LYP) =  -343.549255422     A.U. after    9 cycles
 SCF Done:  E(RB3LYP) =  -343.549311598     A.U. after   11 cycles
 SCF Done:  E(RB3LYP) =  -343.549313494     A.U. after    9 cycles
 SCF Done:  E(RB3LYP) =  -343.549356110     A.U. after   11 cycles
 SCF Done:  E(RB3LYP) =  -343.549357222     A.U. after    8 cycles
 SCF Done:  E(RB3LYP) =  -343.549395564     A.U. after   11 cycles
 SCF Done:  E(RB3LYP) =  -343.549396062     A.U. after    8 cycles

                          Input orientation:
 ---------------------------------------------------------------------
 Center     Atomic      Atomic             Coordinates (Angstroms)
 Number     Number       Type             X           Y           Z
 ---------------------------------------------------------------------
      1          6           0       -0.345730   -1.186451   -0.413476
      2          6           0        0.713017   -0.557543    0.411093
      3          6           0        1.638340    0.431729   -0.222817
      4          8           0       -0.664068   -0.143464    0.507845
      5          8           0       -3.334511    0.751551   -0.299729
      6          8           0        2.828514    0.461254    0.006398
      7          1           0       -3.954425    1.018540    0.394639
      8          1           0       -0.449456   -0.917674   -1.463994
      9          1           0       -0.698705   -2.177679   -0.134757
     10          1           0        1.157553    1.138613   -0.931646
     11          1           0        1.102955   -1.088021    1.278312
     12          1           0       -2.467248    0.678878    0.134503
 ---------------------------------------------------------------------

 Alpha  occ. eigenvalues --  -19.21697 -19.18726 -19.15234 -10.30956 -10.28638
 Alpha  occ. eigenvalues --  -10.28491  -1.12401  -1.07893  -1.00610  -0.74944
 Alpha  occ. eigenvalues --   -0.69542  -0.62111  -0.54785  -0.53062  -0.51972
 Alpha  occ. eigenvalues --   -0.47796  -0.44757  -0.43675  -0.42392  -0.38242
 Alpha  occ. eigenvalues --   -0.35378  -0.32889  -0.30566  -0.28755
 Alpha virt. eigenvalues --   -0.07024   0.00300   0.00475   0.01419   0.02652
 Alpha virt. eigenvalues --    0.05009   0.05267   0.06698   0.06976   0.07746
 Alpha virt. eigenvalues --    0.09574   0.10808   0.11234   0.13780   0.15156

 Mulliken charges:
               1
     1  C   -0.276745
     2  C    0.044493
     3  C    0.119167
     4  O   -0.370895
     5  O   -0.977212
     6  O   -0.370292
     7  H    0.462907
     8  H    0.219012
     9  H    0.217771
    10  H    0.180994
    11  H    0.223318
    12  H    0.527481
 Sum of Mulliken charges =  -0.00000

 Dipole moment (field-independent basis, Debye):
    X=             -0.7096    Y=             -1.6095    Z=              0.8254  Tot=              1.9430
 Quadrupole moment (field-independent basis, Debye-Ang):
   XX=            -49.5766   YY=            -33.1534   ZZ=            -34.8026
   XY=             -1.7242   XZ=             -6.4825   YZ=              1.6361

  Exact polarizability:   0.000   0.000   0.000   0.000   0.000   0.000
 Approx polarizability:  86.808   4.444  55.890   6.443   0.247  54.569

 Normal termination of Gaussian 16 at Wed Dec 23 22:38:39 2020.
