 Gaussian 16, Revision B.01,
 Gaussian 16:  ES64L-G16RevB.01 20-Dec-2017

 ----------------------------------------------------------------------
 # B3LYP/6-31+G* IRC=(CALCALL, maxpoints=40, StepSize=15, maxcyc=100, R
 eport=Cartesians)
 ----------------------------------------------------------------------

 -----------
 pp_21_0 IRC
 -----------
 Symbolic Z-matrix:
 Charge =  0 Multiplicity = 1

 SCF Done:  E(RB3LYP) =  -343.423679113     A.U. after   17 cycles
 SCF Done:  E(RB3LYP) =  -343.423705757     A.U. after   13 cycles
 SCF Done:  E(RB3LYP) =  -343.423719252     A.U. after   11 cycles
 SCF Done:  E(RB3LYP) =  -343.423719266     A.U. after   10 cycles
 SCF Done:  E(RB3LYP) =  -343.423798900     A.U. after   13 cycles
 SCF Done:  E(RB3LYP) =  -343.423801323     A.U. after   11 cycles
 SCF Done:  E(RB3LYP) =  -343.423904240     A.U. after   13 cycles
 SCF Done:  E(RB3LYP) =  -343.423907907     A.U. after   11 cycles
 SCF Done:  E(RB3LYP) =  -343.424063297     A.U. after   13 cycles
 SCF Done:  E(RB3LYP) =  -343.424066134     A.U. after   11 cycles
 SCF Done:  E(RB3LYP) =  -343.549171753     A.U. after   11 cycles
 SCF Done:  E(RB3LYP) =  -343.549174019     A.U. after    9 cycles
 SCF Done:  E(RB3LYP) =  -343.549253158     A.U. after   11 cycles
 SCF Done:  E(RB3LYP) =  -343.549255494     A.U. after    9 cycles
 SCF Done:  E(RB3LYP) =  -343.549311694     A.U. after   11 cycles
 SCF Done:  E(RB3LYP) =  -343.549313589     A.U. after    9 cycles
 SCF Done:  E(RB3LYP) =  -343.549356221     A.U. after   11 cycles
 SCF Done:  E(RB3LYP) =  -343.549357332     A.U. after    8 cycles
 SCF Done:  E(RB3LYP) =  -343.549395682     A.U. after   11 cycles
 SCF Done:  E(RB3LYP) =  -343.549396180     A.U. after    8 cycles

                          Input orientation:
 ---------------------------------------------------------------------
 Center     Atomic      Atomic             Coordinates (Angstroms)
 Number     Number       Type             X           Y           Z
 ---------------------------------------------------------------------
      1          6           0       -0.345751   -1.186446   -0.413504
      2          6           0        0.713016   -0.557580    0.411072
      3          6           0        1.638312    0.431739   -0.222803
      4          8           0       -0.664070   -0.143519    0.507892
      5          8           0       -3.334450    0.751610   -0.299733
      6          8           0        2.828491    0.461265    0.006385
      7          1           0       -3.954391    1.018551    0.394629
      8          1           0       -0.449511   -0.917606   -1.464002
      9          1           0       -0.698708   -2.177694   -0.134836
     10          1           0        1.157500    1.138660   -0.931580
     11          1           0       -2.467205    0.678898    0.134530
     12          1           0        1.102984   -1.088108    1.278247
 ---------------------------------------------------------------------

 Alpha  occ. eigenvalues --  -19.21697 -19.18726 -19.15234 -10.30956 -10.28638
 Alpha  occ. eigenvalues --  -10.28491  -1.12401  -1.07893  -1.00610  -0.74944
 Alpha  occ. eigenvalues --   -0.69542  -0.62111  -0.54785  -0.53062  -0.51972
 Alpha  occ. eigenvalues --   -0.47796  -0.44757  -0.43675  -0.42392  -0.38242
 Alpha  occ. eigenvalues --   -0.35378  -0.32889  -0.30566  -0.28755
 Alpha virt. eigenvalues --   -0.07024   0.00300   0.00475   0.01420   0.02652
 Alpha virt. eigenvalues --    0.05009   0.05267   0.06698   0.06976   0.07746
 Alpha virt. eigenvalues --    0.09574   0.10808   0.11234   0.13780   0.15156

 Mulliken charges:
               1
     1  C   -0.276746
     2  C    0.044498
     3  C    0.119166
     4  O   -0.370897
     5  O   -0.977212
     6  O   -0.370292
     7  H    0.462908
     8  H    0.219013
     9  H    0.217770
    10  H    0.180995
    11  H    0.527480
    12  H    0.223318
 Sum of Mulliken charges =   0.00000

 Dipole moment (field-independent basis, Debye):
    X=             -0.7097    Y=             -1.6096    Z=              0.8254  Tot=              1.9431
 Quadrupole moment (field-independent basis, Debye-Ang):
   XX=            -49.5758   YY=            -33.1536   ZZ=            -34.8028
   XY=             -1.7238   XZ=             -6.4822   YZ=              1.6362

  Exact polarizability:   0.000   0.000   0.000   0.000   0.000   0.000
 Approx polarizability:  86.808   4.444  55.890   6.443   0.247  54.568

 Normal termination of Gaussian 16 at Wed Dec 23 22:38:36 2020.
