 Gaussian 16, Revision B.01,
 Gaussian 16:  ES64L-G16RevB.01 20-Dec-2017

 ----------------------------------------------------------------------
 # B3LYP/6-31+G* IRC=(CALCALL, maxpoints=40, StepSize=15, maxcyc=100, R
 eport=Cartesians)
 ----------------------------------------------------------------------

 -----------
 pp_23_0 IRC
 -----------
 Symbolic Z-matrix:
 Charge =  0 Multiplicity = 1

 SCF Done:  E(RB3LYP) =  -343.344207818     A.U. after   20 cycles
 SCF Done:  E(RB3LYP) =  -343.344722582     A.U. after   15 cycles
 SCF Done:  E(RB3LYP) =  -343.346726400     A.U. after   15 cycles
 SCF Done:  E(RB3LYP) =  -343.350948939     A.U. after   15 cycles
 SCF Done:  E(RB3LYP) =  -343.358004814     A.U. after   15 cycles
 SCF Done:  E(RB3LYP) =  -343.368136888     A.U. after   14 cycles
 SCF Done:  E(RB3LYP) =  -343.381078536     A.U. after   14 cycles
 SCF Done:  E(RB3LYP) =  -343.395995141     A.U. after   13 cycles
 SCF Done:  E(RB3LYP) =  -343.411392345     A.U. after   13 cycles
 SCF Done:  E(RB3LYP) =  -343.425023262     A.U. after   12 cycles
 SCF Done:  E(RB3LYP) =  -343.403195590     A.U. after   11 cycles
 SCF Done:  E(RB3LYP) =  -343.405685585     A.U. after   11 cycles
 SCF Done:  E(RB3LYP) =  -343.408160554     A.U. after   11 cycles
 SCF Done:  E(RB3LYP) =  -343.410607639     A.U. after   11 cycles
 SCF Done:  E(RB3LYP) =  -343.413011741     A.U. after   11 cycles
 SCF Done:  E(RB3LYP) =  -343.415355268     A.U. after   11 cycles
 SCF Done:  E(RB3LYP) =  -343.417617875     A.U. after   11 cycles
 SCF Done:  E(RB3LYP) =  -343.419776291     A.U. after   11 cycles
 SCF Done:  E(RB3LYP) =  -343.421804428     A.U. after   11 cycles
 SCF Done:  E(RB3LYP) =  -343.423673927     A.U. after   11 cycles

                          Input orientation:
 ---------------------------------------------------------------------
 Center     Atomic      Atomic             Coordinates (Angstroms)
 Number     Number       Type             X           Y           Z
 ---------------------------------------------------------------------
      1          6           0       -1.173445    0.857783    0.150069
      2          6           0        0.226609    1.414787   -0.104435
      3          6           0        1.295576    0.466212    0.439910
      4          8           0       -1.280998   -0.493132   -0.354370
      5          8           0       -0.216628   -1.266343    0.167936
      6          8           0        1.184286   -0.755088   -0.288571
      7          1           0        1.176685    0.265744    1.513676
      8          1           0       -1.423455    0.865468    1.219806
      9          1           0       -1.942210    1.399241   -0.409845
     10          1           0        2.313217    0.832434    0.257067
     11          1           0        0.304975    2.406567    0.359151
     12          1           0        0.391348    1.528265   -1.182467
 ---------------------------------------------------------------------

 Alpha  occ. eigenvalues --  -19.27175 -19.23823 -19.22440 -10.26169 -10.25690
 Alpha  occ. eigenvalues --  -10.21313  -1.16558  -1.03573  -0.89144  -0.77304
 Alpha  occ. eigenvalues --   -0.69893  -0.60772  -0.53709  -0.52273  -0.48993
 Alpha  occ. eigenvalues --   -0.47175  -0.45631  -0.43395  -0.40612  -0.38457
 Alpha  occ. eigenvalues --   -0.37224  -0.32035  -0.29829  -0.28003
 Alpha virt. eigenvalues --   -0.06306   0.00170   0.01726   0.02266   0.02302
 Alpha virt. eigenvalues --    0.03863   0.05972   0.06258   0.07139   0.07621
 Alpha virt. eigenvalues --    0.09186   0.10745   0.11720   0.14452   0.14963

 Mulliken charges:
               1
     1  C   -0.235866
     2  C   -0.416010
     3  C   -0.197846
     4  O   -0.168226
     5  O   -0.032926
     6  O   -0.194313
     7  H    0.201149
     8  H    0.198860
     9  H    0.208351
    10  H    0.204024
    11  H    0.204223
    12  H    0.228579
 Sum of Mulliken charges =  -0.00000

 Dipole moment (field-independent basis, Debye):
    X=              0.2057    Y=              3.8668    Z=              1.2181  Tot=              4.0593
 Quadrupole moment (field-independent basis, Debye-Ang):
   XX=            -34.5173   YY=            -36.3697   ZZ=            -35.8357
   XY=             -0.1668   XZ=              0.4113   YZ=             -0.5284

  Exact polarizability:   0.000   0.000   0.000   0.000   0.000   0.000
 Approx polarizability:  90.347   0.536  68.875  -0.858  -0.796  60.794

 Normal termination of Gaussian 16 at Wed Dec 23 22:48:19 2020.
