 Gaussian 16, Revision B.01,
 Gaussian 16:  ES64L-G16RevB.01 20-Dec-2017

 ----------------------------------------------------------------------
 # B3LYP/6-31+G* IRC=(CALCALL, maxpoints=40, StepSize=15, maxcyc=100, R
 eport=Cartesians)
 ----------------------------------------------------------------------

 -----------
 pp_20_1 IRC
 -----------
 Symbolic Z-matrix:
 Charge =  0 Multiplicity = 1

 SCF Done:  E(RB3LYP) =  -343.304135817     A.U. after   15 cycles
 SCF Done:  E(RB3LYP) =  -343.304512715     A.U. after   14 cycles
 SCF Done:  E(RB3LYP) =  -343.304517397     A.U. after   11 cycles
 SCF Done:  E(RB3LYP) =  -343.305765022     A.U. after   14 cycles
 SCF Done:  E(RB3LYP) =  -343.308105136     A.U. after   14 cycles
 SCF Done:  E(RB3LYP) =  -343.311854019     A.U. after   14 cycles
 SCF Done:  E(RB3LYP) =  -343.317490873     A.U. after   14 cycles
 SCF Done:  E(RB3LYP) =  -343.325746969     A.U. after   15 cycles
 SCF Done:  E(RB3LYP) =  -343.337533011     A.U. after   16 cycles
 SCF Done:  E(RB3LYP) =  -343.351895992     A.U. after   16 cycles
 SCF Done:  E(RB3LYP) =  -343.345710345     A.U. after   11 cycles
 SCF Done:  E(RB3LYP) =  -343.346166726     A.U. after   11 cycles
 SCF Done:  E(RB3LYP) =  -343.346523357     A.U. after   11 cycles
 SCF Done:  E(RB3LYP) =  -343.346817265     A.U. after   11 cycles
 SCF Done:  E(RB3LYP) =  -343.347064932     A.U. after   11 cycles
 SCF Done:  E(RB3LYP) =  -343.347269301     A.U. after   11 cycles
 SCF Done:  E(RB3LYP) =  -343.347428652     A.U. after   11 cycles
 SCF Done:  E(RB3LYP) =  -343.347540333     A.U. after   11 cycles
 SCF Done:  E(RB3LYP) =  -343.347602098     A.U. after   11 cycles
 SCF Done:  E(RB3LYP) =  -343.347602731     A.U. after    9 cycles

                          Input orientation:
 ---------------------------------------------------------------------
 Center     Atomic      Atomic             Coordinates (Angstroms)
 Number     Number       Type             X           Y           Z
 ---------------------------------------------------------------------
      1          6           0        0.441942   -0.911580   -0.153909
      2          6           0       -0.733210   -0.005675   -0.448291
      3          6           0       -1.652239    0.498261    0.633030
      4          8           0        1.674298   -0.274108   -0.453769
      5          8           0        1.854341    0.785838    0.538477
      6          8           0       -2.049428   -0.544648   -0.029393
      7          1           0        2.747944    0.560889    0.855724
      8          1           0        0.426100   -1.264018    0.885199
      9          1           0        0.445092   -1.779887   -0.826579
     10          1           0       -1.580988    4.011598   -0.642175
     11          1           0       -0.761417    0.469634   -1.425857
     12          1           0       -1.611911    3.513073   -0.091305
 ---------------------------------------------------------------------

 Alpha  occ. eigenvalues --  -19.26182 -19.24032 -19.23162 -10.28935 -10.27328
 Alpha  occ. eigenvalues --  -10.27214  -1.17387  -1.14287  -0.94610  -0.75759
 Alpha  occ. eigenvalues --   -0.66022  -0.61090  -0.56150  -0.52895  -0.49937
 Alpha  occ. eigenvalues --   -0.48495  -0.46918  -0.42714  -0.40487  -0.39561
 Alpha  occ. eigenvalues --   -0.37317  -0.34148  -0.28918  -0.26621
 Alpha virt. eigenvalues --   -0.07546  -0.01943  -0.00071   0.01449   0.02562
 Alpha virt. eigenvalues --    0.04173   0.05190   0.05729   0.07154   0.08353
 Alpha virt. eigenvalues --    0.09530   0.10129   0.11594   0.12152   0.13077

 Mulliken charges:
               1
     1  C   -0.110623
     2  C   -0.062495
     3  C   -0.152307
     4  O   -0.157060
     5  O   -0.512566
     6  O   -0.149828
     7  H    0.481661
     8  H    0.206319
     9  H    0.219391
    10  H   -0.018458
    11  H    0.222583
    12  H    0.033384
 Sum of Mulliken charges =  -0.00000

 Dipole moment (field-independent basis, Debye):
    X=              1.9049    Y=             -1.7445    Z=             -0.6111  Tot=              2.6543
 Quadrupole moment (field-independent basis, Debye-Ang):
   XX=            -36.7775   YY=            -37.6505   ZZ=            -36.6239
   XY=             -0.0397   XZ=              6.2381   YZ=             -1.6538

  Exact polarizability:   0.000   0.000   0.000   0.000   0.000   0.000
 Approx polarizability:  72.415   4.569  69.163  -5.099   4.689  69.800

 Normal termination of Gaussian 16 at Wed Dec 23 22:34:48 2020.
