 Gaussian 16, Revision B.01,
 Gaussian 16:  ES64L-G16RevB.01 20-Dec-2017

 ----------------------------------------------------------------------
 # B3LYP/6-31+G* IRC=(CALCALL, maxpoints=40, StepSize=15, maxcyc=100, R
 eport=Cartesians)
 ----------------------------------------------------------------------

 -----------
 pp_20_0 IRC
 -----------
 Symbolic Z-matrix:
 Charge =  0 Multiplicity = 1

 SCF Done:  E(RB3LYP) =  -343.365092935     A.U. after   14 cycles
 SCF Done:  E(RB3LYP) =  -343.365713542     A.U. after   13 cycles
 SCF Done:  E(RB3LYP) =  -343.367407362     A.U. after   13 cycles
 SCF Done:  E(RB3LYP) =  -343.369901715     A.U. after   12 cycles
 SCF Done:  E(RB3LYP) =  -343.372990966     A.U. after   12 cycles
 SCF Done:  E(RB3LYP) =  -343.376574832     A.U. after   12 cycles
 SCF Done:  E(RB3LYP) =  -343.380649295     A.U. after   12 cycles
 SCF Done:  E(RB3LYP) =  -343.385263088     A.U. after   12 cycles
 SCF Done:  E(RB3LYP) =  -343.390472977     A.U. after   12 cycles
 SCF Done:  E(RB3LYP) =  -343.396310254     A.U. after   12 cycles
 SCF Done:  E(RB3LYP) =  -343.442221550     A.U. after   10 cycles
 SCF Done:  E(RB3LYP) =  -343.442738140     A.U. after   11 cycles
 SCF Done:  E(RB3LYP) =  -343.443203480     A.U. after   11 cycles
 SCF Done:  E(RB3LYP) =  -343.443622044     A.U. after   11 cycles
 SCF Done:  E(RB3LYP) =  -343.443997536     A.U. after   11 cycles
 SCF Done:  E(RB3LYP) =  -343.444333217     A.U. after   11 cycles
 SCF Done:  E(RB3LYP) =  -343.444632186     A.U. after   11 cycles
 SCF Done:  E(RB3LYP) =  -343.444897476     A.U. after   11 cycles
 SCF Done:  E(RB3LYP) =  -343.445132056     A.U. after   11 cycles
 SCF Done:  E(RB3LYP) =  -343.445338844     A.U. after   11 cycles

                          Input orientation:
 ---------------------------------------------------------------------
 Center     Atomic      Atomic             Coordinates (Angstroms)
 Number     Number       Type             X           Y           Z
 ---------------------------------------------------------------------
      1          6           0       -0.832259    0.954231    0.371157
      2          6           0        0.487780    1.019090   -0.351548
      3          6           0        1.516493    0.215866   -0.139713
      4          8           0       -1.811309    0.111035   -0.253530
      5          8           0       -1.428033   -1.260700    0.045155
      6          8           0        2.456976   -0.463182    0.016639
      7          1           0       -1.246639   -1.597934   -0.851114
      8          1           0       -0.722340    0.646604    1.414641
      9          1           0       -1.314307    1.936661    0.340928
     10          1           0        0.278980   -1.632866    2.149494
     11          1           0        0.859023   -1.530352    2.602952
     12          1           0        0.607019    1.708646   -1.183852
 ---------------------------------------------------------------------

 Alpha  occ. eigenvalues --  -19.23729 -19.22739 -19.22574 -10.33221 -10.27003
 Alpha  occ. eigenvalues --  -10.21815  -1.13467  -1.13305  -0.93289  -0.80932
 Alpha  occ. eigenvalues --   -0.68509  -0.55846  -0.54762  -0.51151  -0.50091
 Alpha  occ. eigenvalues --   -0.48444  -0.45970  -0.45332  -0.43111  -0.41113
 Alpha  occ. eigenvalues --   -0.39195  -0.32850  -0.28807  -0.25634
 Alpha virt. eigenvalues --   -0.05853  -0.01358   0.00295   0.01607   0.02372
 Alpha virt. eigenvalues --    0.03580   0.04493   0.06150   0.07266   0.07883
 Alpha virt. eigenvalues --    0.09098   0.09852   0.10943   0.12082   0.13874

 Mulliken charges:
               1
     1  C   -0.370996
     2  C   -0.015114
     3  C    0.293499
     4  O   -0.116961
     5  O   -0.526979
     6  O   -0.423025
     7  H    0.474735
     8  H    0.218451
     9  H    0.208785
    10  H    0.022982
    11  H   -0.000848
    12  H    0.235471
 Sum of Mulliken charges =  -0.00000

 Dipole moment (field-independent basis, Debye):
    X=              0.2197    Y=              1.3388    Z=             -1.0850  Tot=              1.7372
 Quadrupole moment (field-independent basis, Debye-Ang):
   XX=            -45.2894   YY=            -33.7250   ZZ=            -34.3060
   XY=              0.4601   XZ=             -0.2456   YZ=              1.9231

  Exact polarizability:   0.000   0.000   0.000   0.000   0.000   0.000
 Approx polarizability:  95.939 -24.147  79.826   8.591  -3.636  53.728

 Normal termination of Gaussian 16 at Wed Dec 23 22:39:34 2020.
