 Gaussian 16, Revision B.01,
 Gaussian 16:  ES64L-G16RevB.01 20-Dec-2017

 ----------------------------------------------------------------------
 # B3LYP/6-31+G* IRC=(CALCALL, maxpoints=40, StepSize=15, maxcyc=100, R
 eport=Cartesians)
 ----------------------------------------------------------------------

 ----------
 pp_2_0 IRC
 ----------
 Symbolic Z-matrix:
 Charge =  0 Multiplicity = 1

 SCF Done:  E(RB3LYP) =  -343.404370853     A.U. after   18 cycles
 SCF Done:  E(RB3LYP) =  -343.404968220     A.U. after   15 cycles
 SCF Done:  E(RB3LYP) =  -343.405073842     A.U. after   13 cycles
 SCF Done:  E(RB3LYP) =  -343.406548035     A.U. after   14 cycles
 SCF Done:  E(RB3LYP) =  -343.408325852     A.U. after   14 cycles
 SCF Done:  E(RB3LYP) =  -343.410299789     A.U. after   14 cycles
 SCF Done:  E(RB3LYP) =  -343.412375901     A.U. after   14 cycles
 SCF Done:  E(RB3LYP) =  -343.414506137     A.U. after   14 cycles
 SCF Done:  E(RB3LYP) =  -343.416655510     A.U. after   14 cycles
 SCF Done:  E(RB3LYP) =  -343.418800944     A.U. after   14 cycles
 SCF Done:  E(RB3LYP) =  -343.497752081     A.U. after   10 cycles
 SCF Done:  E(RB3LYP) =  -343.497891804     A.U. after   11 cycles
 SCF Done:  E(RB3LYP) =  -343.498013174     A.U. after   11 cycles
 SCF Done:  E(RB3LYP) =  -343.498123670     A.U. after   10 cycles
 SCF Done:  E(RB3LYP) =  -343.498228479     A.U. after   10 cycles
 SCF Done:  E(RB3LYP) =  -343.498330521     A.U. after   10 cycles
 SCF Done:  E(RB3LYP) =  -343.498431168     A.U. after   10 cycles
 SCF Done:  E(RB3LYP) =  -343.498530951     A.U. after   10 cycles
 SCF Done:  E(RB3LYP) =  -343.498629991     A.U. after   10 cycles
 SCF Done:  E(RB3LYP) =  -343.498728224     A.U. after   10 cycles

                          Input orientation:
 ---------------------------------------------------------------------
 Center     Atomic      Atomic             Coordinates (Angstroms)
 Number     Number       Type             X           Y           Z
 ---------------------------------------------------------------------
      1          6           0       -0.409451   -0.744718   -0.186637
      2          6           0        0.473165   -0.076001    0.868244
      3          6           0        1.890515    0.187029    0.418818
      4          8           0       -1.796505   -0.470280    0.018045
      5          8           0       -1.980287    0.954580   -0.244762
      6          8           0        2.304565    0.024234   -0.711211
      7          1           0       -2.539838    0.912677   -1.041616
      8          1           0       -0.361748   -1.837941   -0.124593
      9          1           0       -0.112905   -0.438839   -1.195173
     10          1           0        2.568559    0.579168    1.208071
     11          1           0        0.044560    0.903980    1.127874
     12          1           0        0.498028   -0.644620    1.808463
 ---------------------------------------------------------------------

 Alpha  occ. eigenvalues --  -19.22742 -19.22522 -19.17219 -10.29715 -10.25403
 Alpha  occ. eigenvalues --  -10.21375  -1.13334  -1.06537  -0.93312  -0.78809
 Alpha  occ. eigenvalues --   -0.67030  -0.58597  -0.53801  -0.51231  -0.49299
 Alpha  occ. eigenvalues --   -0.47249  -0.44622  -0.43887  -0.41149  -0.38635
 Alpha  occ. eigenvalues --   -0.36309  -0.32564  -0.29054  -0.26831
 Alpha virt. eigenvalues --   -0.04316  -0.01222   0.00785   0.01018   0.03236
 Alpha virt. eigenvalues --    0.03708   0.05467   0.06595   0.07160   0.08778
 Alpha virt. eigenvalues --    0.09194   0.11496   0.12334   0.13276   0.15058

 Mulliken charges:
               1
     1  C   -0.209799
     2  C   -0.429703
     3  C    0.149805
     4  O   -0.155728
     5  O   -0.544548
     6  O   -0.366294
     7  H    0.477334
     8  H    0.209460
     9  H    0.223562
    10  H    0.159954
    11  H    0.260829
    12  H    0.225130
 Sum of Mulliken charges =  -0.00000

 Dipole moment (field-independent basis, Debye):
    X=             -0.6676    Y=             -0.1735    Z=              0.8547  Tot=              1.0983
 Quadrupole moment (field-independent basis, Debye-Ang):
   XX=            -40.7718   YY=            -34.8825   ZZ=            -34.0564
   XY=             -0.9141   XZ=              9.8934   YZ=             -1.0712

  Exact polarizability:   0.000   0.000   0.000   0.000   0.000   0.000
 Approx polarizability:  64.126  -3.550  64.169  -4.809   0.827  72.393

 Normal termination of Gaussian 16 at Wed Dec 23 23:55:36 2020.
