 Gaussian 16, Revision B.01,
 Gaussian 16:  ES64L-G16RevB.01 20-Dec-2017

 ----------------------------------------------------------------------
 # B3LYP/6-31+G* IRC=(CALCALL, maxpoints=40, StepSize=15, maxcyc=100, R
 eport=Cartesians)
 ----------------------------------------------------------------------

 -----------
 pp_24_0 IRC
 -----------
 Symbolic Z-matrix:
 Charge =  0 Multiplicity = 1

 SCF Done:  E(RB3LYP) =  -343.459768805     A.U. after   13 cycles
 SCF Done:  E(RB3LYP) =  -343.461772208     A.U. after   11 cycles
 SCF Done:  E(RB3LYP) =  -343.467102048     A.U. after   11 cycles
 SCF Done:  E(RB3LYP) =  -343.474456289     A.U. after   11 cycles
 SCF Done:  E(RB3LYP) =  -343.482539516     A.U. after   11 cycles
 SCF Done:  E(RB3LYP) =  -343.490396778     A.U. after   11 cycles
 SCF Done:  E(RB3LYP) =  -343.497433725     A.U. after   11 cycles
 SCF Done:  E(RB3LYP) =  -343.503299936     A.U. after   11 cycles
 SCF Done:  E(RB3LYP) =  -343.507802733     A.U. after   11 cycles
 SCF Done:  E(RB3LYP) =  -343.510857722     A.U. after   10 cycles
 SCF Done:  E(RB3LYP) =  -343.604609957     A.U. after   10 cycles
 SCF Done:  E(RB3LYP) =  -343.606270886     A.U. after   10 cycles
 SCF Done:  E(RB3LYP) =  -343.606508723     A.U. after    9 cycles
 SCF Done:  E(RB3LYP) =  -343.606493417     A.U. after    8 cycles
 SCF Done:  E(RB3LYP) =  -343.606583110     A.U. after    9 cycles
 SCF Done:  E(RB3LYP) =  -343.606649143     A.U. after    9 cycles
 SCF Done:  E(RB3LYP) =  -343.606699057     A.U. after    9 cycles
 SCF Done:  E(RB3LYP) =  -343.606737957     A.U. after    9 cycles
 SCF Done:  E(RB3LYP) =  -343.606768499     A.U. after    8 cycles
 SCF Done:  E(RB3LYP) =  -343.606791501     A.U. after    8 cycles

                          Input orientation:
 ---------------------------------------------------------------------
 Center     Atomic      Atomic             Coordinates (Angstroms)
 Number     Number       Type             X           Y           Z
 ---------------------------------------------------------------------
      1          6           0        3.130794    0.278486    0.000016
      2          6           0       -1.441502   -1.378580    0.000012
      3          6           0       -1.444376    0.140101   -0.000000
      4          8           0        2.277894   -0.586992   -0.000011
      5          8           0       -0.222303    0.729893   -0.000019
      6          8           0       -2.445519    0.818113    0.000005
      7          1           0        0.511585    0.077457   -0.000020
      8          1           0        2.867496    1.351532    0.000036
      9          1           0        4.204665    0.019888    0.000022
     10          1           0       -0.920628   -1.764261    0.884739
     11          1           0       -2.470207   -1.741713    0.000030
     12          1           0       -0.920655   -1.764275   -0.884727
 ---------------------------------------------------------------------

 Alpha  occ. eigenvalues --  -19.22274 -19.18923 -19.13563 -10.33172 -10.32034
 Alpha  occ. eigenvalues --  -10.20399  -1.10946  -1.09316  -1.01341  -0.75082
 Alpha  occ. eigenvalues --   -0.67908  -0.61559  -0.53865  -0.51241  -0.49916
 Alpha  occ. eigenvalues --   -0.46542  -0.45800  -0.44484  -0.41513  -0.39249
 Alpha  occ. eigenvalues --   -0.37048  -0.31908  -0.31328  -0.27111
 Alpha virt. eigenvalues --   -0.09477  -0.00475   0.00598   0.00751   0.02927
 Alpha virt. eigenvalues --    0.03740   0.04452   0.06062   0.07001   0.07737
 Alpha virt. eigenvalues --    0.08920   0.10058   0.10627   0.12618   0.12840

 Mulliken charges:
               1
     1  C   -0.002492
     2  C   -0.827611
     3  C    0.658815
     4  O   -0.336353
     5  O   -0.646817
     6  O   -0.461162
     7  H    0.533845
     8  H    0.192143
     9  H    0.182699
    10  H    0.231776
    11  H    0.243379
    12  H    0.231777
 Sum of Mulliken charges =  -0.00000

 Dipole moment (field-independent basis, Debye):
    X=              5.6515    Y=             -1.9382    Z=              0.0001  Tot=              5.9746
 Quadrupole moment (field-independent basis, Debye-Ang):
   XX=            -30.7472   YY=            -38.4812   ZZ=            -35.2993
   XY=             10.4522   XZ=              0.0002   YZ=              0.0000

  Exact polarizability:   0.000   0.000   0.000   0.000   0.000   0.000
 Approx polarizability:  82.332  -0.149  66.660   0.000   0.000  43.379

 Normal termination of Gaussian 16 at Wed Dec 23 22:25:57 2020.
