 Gaussian 16, Revision B.01,
 Gaussian 16:  ES64L-G16RevB.01 20-Dec-2017

 ----------------------------------------------------------------------
 # B3LYP/6-31+G* IRC=(CALCALL, maxpoints=40, StepSize=15, maxcyc=100, R
 eport=Cartesians)
 ----------------------------------------------------------------------

 -----------
 pp_22_0 IRC
 -----------
 Symbolic Z-matrix:
 Charge =  0 Multiplicity = 1

 SCF Done:  E(RB3LYP) =  -343.437229424     A.U. after   17 cycles
 SCF Done:  E(RB3LYP) =  -343.437792971     A.U. after   14 cycles
 SCF Done:  E(RB3LYP) =  -343.437802870     A.U. after   11 cycles
 SCF Done:  E(RB3LYP) =  -343.439904591     A.U. after   14 cycles
 SCF Done:  E(RB3LYP) =  -343.443947538     A.U. after   14 cycles
 SCF Done:  E(RB3LYP) =  -343.449892478     A.U. after   13 cycles
 SCF Done:  E(RB3LYP) =  -343.457134098     A.U. after   12 cycles
 SCF Done:  E(RB3LYP) =  -343.464664650     A.U. after   12 cycles
 SCF Done:  E(RB3LYP) =  -343.471515147     A.U. after   11 cycles
 SCF Done:  E(RB3LYP) =  -343.477100882     A.U. after   11 cycles
 SCF Done:  E(RB3LYP) =  -343.611860329     A.U. after   11 cycles
 SCF Done:  E(RB3LYP) =  -343.612926513     A.U. after   11 cycles
 SCF Done:  E(RB3LYP) =  -343.613931631     A.U. after   11 cycles
 SCF Done:  E(RB3LYP) =  -343.614872909     A.U. after   11 cycles
 SCF Done:  E(RB3LYP) =  -343.615744670     A.U. after   11 cycles
 SCF Done:  E(RB3LYP) =  -343.616539913     A.U. after   11 cycles
 SCF Done:  E(RB3LYP) =  -343.617252308     A.U. after   11 cycles
 SCF Done:  E(RB3LYP) =  -343.617878440     A.U. after   11 cycles
 SCF Done:  E(RB3LYP) =  -343.618418740     A.U. after   11 cycles
 SCF Done:  E(RB3LYP) =  -343.618878105     A.U. after   11 cycles

                          Input orientation:
 ---------------------------------------------------------------------
 Center     Atomic      Atomic             Coordinates (Angstroms)
 Number     Number       Type             X           Y           Z
 ---------------------------------------------------------------------
      1          6           0       -1.612938   -0.689407   -0.448910
      2          6           0       -1.101528   -1.559718    0.660331
      3          6           0        1.762776    0.535637    0.169908
      4          8           0       -1.547089    0.530216   -0.466194
      5          8           0        0.847715    1.323445    0.742126
      6          8           0        1.557415   -0.270481   -0.713886
      7          1           0       -0.042860    1.161173    0.331446
      8          1           0       -1.869477   -2.292749    0.938563
      9          1           0       -2.082646   -1.214571   -1.305133
     10          1           0        2.751409    0.713205    0.620097
     11          1           0       -0.232037   -2.120991    0.291753
     12          1           0       -0.810603   -0.970350    1.533620
 ---------------------------------------------------------------------

 Alpha  occ. eigenvalues --  -19.20504 -19.18973 -19.15898 -10.33054 -10.31340
 Alpha  occ. eigenvalues --  -10.21524  -1.11263  -1.08004  -1.02766  -0.77612
 Alpha  occ. eigenvalues --   -0.66607  -0.60820  -0.52267  -0.50450  -0.49268
 Alpha  occ. eigenvalues --   -0.47061  -0.46560  -0.44795  -0.41974  -0.40339
 Alpha  occ. eigenvalues --   -0.38629  -0.33095  -0.29624  -0.29050
 Alpha virt. eigenvalues --   -0.05967  -0.01216   0.00376   0.01792   0.03080
 Alpha virt. eigenvalues --    0.03640   0.04913   0.06143   0.06718   0.07359
 Alpha virt. eigenvalues --    0.07994   0.09758   0.11154   0.13813   0.15117

 Mulliken charges:
               1
     1  C    0.374814
     2  C   -0.833817
     3  C    0.290439
     4  O   -0.426061
     5  O   -0.575839
     6  O   -0.444968
     7  H    0.544751
     8  H    0.224486
     9  H    0.172336
    10  H    0.167784
    11  H    0.265920
    12  H    0.240155
 Sum of Mulliken charges =  -0.00000

 Dipole moment (field-independent basis, Debye):
    X=             -1.1050    Y=             -2.2783    Z=              1.3238  Tot=              2.8573
 Quadrupole moment (field-independent basis, Debye-Ang):
   XX=            -33.2306   YY=            -35.4921   ZZ=            -37.8305
   XY=              6.0189   XZ=              2.0833   YZ=             -1.3082

  Exact polarizability:   0.000   0.000   0.000   0.000   0.000   0.000
 Approx polarizability:  57.779  -0.197  79.549   3.631  10.916  62.028

 Normal termination of Gaussian 16 at Wed Dec 23 22:37:24 2020.
