 Gaussian 16, Revision B.01,
 Gaussian 16:  ES64L-G16RevB.01 20-Dec-2017

 ----------------------------------------------------------------------
 # B3LYP/6-31+G* IRC=(CALCALL, maxpoints=40, StepSize=15, maxcyc=100, R
 eport=Cartesians)
 ----------------------------------------------------------------------

 ----------
 pp_3_0 IRC
 ----------
 Symbolic Z-matrix:
 Charge =  0 Multiplicity = 1

 SCF Done:  E(RB3LYP) =  -343.370166131     A.U. after   17 cycles
 SCF Done:  E(RB3LYP) =  -343.370435486     A.U. after   13 cycles
 SCF Done:  E(RB3LYP) =  -343.371384523     A.U. after   13 cycles
 SCF Done:  E(RB3LYP) =  -343.373255054     A.U. after   13 cycles
 SCF Done:  E(RB3LYP) =  -343.376308793     A.U. after   13 cycles
 SCF Done:  E(RB3LYP) =  -343.380721407     A.U. after   13 cycles
 SCF Done:  E(RB3LYP) =  -343.386446540     A.U. after   13 cycles
 SCF Done:  E(RB3LYP) =  -343.393064327     A.U. after   13 cycles
 SCF Done:  E(RB3LYP) =  -343.399735709     A.U. after   13 cycles
 SCF Done:  E(RB3LYP) =  -343.405515310     A.U. after   13 cycles
 SCF Done:  E(RB3LYP) =  -343.433231764     A.U. after   11 cycles
 SCF Done:  E(RB3LYP) =  -343.436362615     A.U. after   11 cycles
 SCF Done:  E(RB3LYP) =  -343.439550290     A.U. after   11 cycles
 SCF Done:  E(RB3LYP) =  -343.442788157     A.U. after   11 cycles
 SCF Done:  E(RB3LYP) =  -343.446067347     A.U. after   11 cycles
 SCF Done:  E(RB3LYP) =  -343.449376375     A.U. after   11 cycles
 SCF Done:  E(RB3LYP) =  -343.452700674     A.U. after   11 cycles
 SCF Done:  E(RB3LYP) =  -343.456022120     A.U. after   11 cycles
 SCF Done:  E(RB3LYP) =  -343.459318626     A.U. after   11 cycles
 SCF Done:  E(RB3LYP) =  -343.462563926     A.U. after   11 cycles

                          Input orientation:
 ---------------------------------------------------------------------
 Center     Atomic      Atomic             Coordinates (Angstroms)
 Number     Number       Type             X           Y           Z
 ---------------------------------------------------------------------
      1          6           0       -0.369269    0.248315   -0.804732
      2          6           0        1.078925    1.033460   -0.008391
      3          6           0        1.511698   -0.242402    0.581107
      4          8           0       -1.686088    0.536532   -0.417990
      5          8           0       -2.140141   -0.396417    0.623422
      6          8           0        2.143863   -1.089711   -0.026634
      7          1           0       -2.779232    0.186998    1.072402
      8          1           0       -0.314623    0.606137   -1.835808
      9          1           0       -0.200145   -0.829121   -0.773435
     10          1           0        1.051363   -0.482708    1.563894
     11          1           0        1.728071    1.410596   -0.802327
     12          1           0        0.765642    1.803247    0.700193
 ---------------------------------------------------------------------

 Alpha  occ. eigenvalues --  -19.24902 -19.23944 -19.15207 -10.28338 -10.28337
 Alpha  occ. eigenvalues --  -10.22370  -1.14556  -1.04826  -0.95452  -0.77197
 Alpha  occ. eigenvalues --   -0.66805  -0.58646  -0.56142  -0.50937  -0.48219
 Alpha  occ. eigenvalues --   -0.47785  -0.44505  -0.42649  -0.40739  -0.40408
 Alpha  occ. eigenvalues --   -0.35949  -0.34472  -0.27734  -0.25808
 Alpha virt. eigenvalues --   -0.03749  -0.03226   0.00436   0.02051   0.02166
 Alpha virt. eigenvalues --    0.03625   0.05297   0.06177   0.07420   0.07963
 Alpha virt. eigenvalues --    0.08518   0.09005   0.11873   0.13191   0.14165

 Mulliken charges:
               1
     1  C   -0.227931
     2  C   -0.452931
     3  C    0.122972
     4  O   -0.112797
     5  O   -0.501599
     6  O   -0.377206
     7  H    0.475394
     8  H    0.220036
     9  H    0.238638
    10  H    0.167244
    11  H    0.231370
    12  H    0.216810
 Sum of Mulliken charges =  -0.00000

 Dipole moment (field-independent basis, Debye):
    X=             -2.0114    Y=              2.9591    Z=              0.9416  Tot=              3.6998
 Quadrupole moment (field-independent basis, Debye-Ang):
   XX=            -39.6288   YY=            -38.6361   ZZ=            -32.3448
   XY=              3.8012   XZ=             -2.4411   YZ=              0.3916

  Exact polarizability:   0.000   0.000   0.000   0.000   0.000   0.000
 Approx polarizability:  84.928  -5.014  71.015  -5.705  -1.768  69.849

 Normal termination of Gaussian 16 at Wed Dec 23 23:55:09 2020.
