 Gaussian 16, Revision B.01,
 Gaussian 16:  ES64L-G16RevB.01 20-Dec-2017

 ----------------------------------------------------------------------
 # B3LYP/6-31+G* IRC=(CALCALL, maxpoints=40, StepSize=15, maxcyc=100, R
 eport=Cartesians)
 ----------------------------------------------------------------------

 ----------
 pp_4_0 IRC
 ----------
 Symbolic Z-matrix:
 Charge =  0 Multiplicity = 1

 SCF Done:  E(RB3LYP) =  -343.444286742     A.U. after   14 cycles
 SCF Done:  E(RB3LYP) =  -343.445329093     A.U. after   12 cycles
 SCF Done:  E(RB3LYP) =  -343.447938779     A.U. after   12 cycles
 SCF Done:  E(RB3LYP) =  -343.451375893     A.U. after   12 cycles
 SCF Done:  E(RB3LYP) =  -343.455100644     A.U. after   12 cycles
 SCF Done:  E(RB3LYP) =  -343.458752813     A.U. after   12 cycles
 SCF Done:  E(RB3LYP) =  -343.462097394     A.U. after   12 cycles
 SCF Done:  E(RB3LYP) =  -343.464988805     A.U. after   12 cycles
 SCF Done:  E(RB3LYP) =  -343.467352983     A.U. after   12 cycles
 SCF Done:  E(RB3LYP) =  -343.469182333     A.U. after   12 cycles
 SCF Done:  E(RB3LYP) =  -343.564030615     A.U. after   10 cycles
 SCF Done:  E(RB3LYP) =  -343.564185766     A.U. after   10 cycles
 SCF Done:  E(RB3LYP) =  -343.564339005     A.U. after   10 cycles
 SCF Done:  E(RB3LYP) =  -343.564490414     A.U. after   10 cycles
 SCF Done:  E(RB3LYP) =  -343.564640014     A.U. after   10 cycles
 SCF Done:  E(RB3LYP) =  -343.564787793     A.U. after   10 cycles
 SCF Done:  E(RB3LYP) =  -343.564933709     A.U. after   10 cycles
 SCF Done:  E(RB3LYP) =  -343.565077704     A.U. after   10 cycles
 SCF Done:  E(RB3LYP) =  -343.565219708     A.U. after   10 cycles
 SCF Done:  E(RB3LYP) =  -343.565359642     A.U. after   10 cycles

                          Input orientation:
 ---------------------------------------------------------------------
 Center     Atomic      Atomic             Coordinates (Angstroms)
 Number     Number       Type             X           Y           Z
 ---------------------------------------------------------------------
      1          6           0       -2.232189   -1.026942    0.001029
      2          6           0        1.167744    1.077754    0.325379
      3          6           0        1.824090   -0.291401    0.359572
      4          8           0       -2.258781    0.151896    0.300238
      5          8           0        0.185010    1.254879   -0.653165
      6          8           0        1.482626   -1.259420   -0.285486
      7          1           0       -0.681245    0.952507   -0.314971
      8          1           0       -1.348395   -1.481035   -0.481321
      9          1           0       -3.096616   -1.683692    0.207490
     10          1           0        2.689418   -0.354518    1.060520
     11          1           0        0.803055    1.284112    1.349296
     12          1           0        1.970720    1.808633    0.143205
 ---------------------------------------------------------------------

 Alpha  occ. eigenvalues --  -19.20899 -19.17207 -19.15526 -10.31658 -10.29149
 Alpha  occ. eigenvalues --  -10.25603  -1.09503  -1.06629  -1.02714  -0.74413
 Alpha  occ. eigenvalues --   -0.66391  -0.59408  -0.53698  -0.51434  -0.49967
 Alpha  occ. eigenvalues --   -0.48368  -0.46306  -0.43891  -0.43042  -0.39387
 Alpha  occ. eigenvalues --   -0.34559  -0.30562  -0.30246  -0.26215
 Alpha virt. eigenvalues --   -0.08147  -0.04140   0.00273   0.01149   0.02756
 Alpha virt. eigenvalues --    0.03621   0.04276   0.04896   0.06697   0.08125
 Alpha virt. eigenvalues --    0.08735   0.09842   0.10609   0.13612   0.14990

 Mulliken charges:
               1
     1  C   -0.014104
     2  C   -0.312147
     3  C    0.226305
     4  O   -0.347678
     5  O   -0.673369
     6  O   -0.369251
     7  H    0.535173
     8  H    0.213683
     9  H    0.176588
    10  H    0.150631
    11  H    0.201831
    12  H    0.212339
 Sum of Mulliken charges =  -0.00000

 Dipole moment (field-independent basis, Debye):
    X=             -0.5590    Y=             -1.0605    Z=              2.2382  Tot=              2.5391
 Quadrupole moment (field-independent basis, Debye-Ang):
   XX=            -30.8649   YY=            -38.1025   ZZ=            -37.1018
   XY=              9.5344   XZ=              4.1222   YZ=              1.1897

  Exact polarizability:   0.000   0.000   0.000   0.000   0.000   0.000
 Approx polarizability:  60.695   4.443  80.312   4.619  12.388  56.257

 Normal termination of Gaussian 16 at Wed Dec 23 22:38:22 2020.
