 Gaussian 16, Revision B.01,
 Gaussian 16:  ES64L-G16RevB.01 20-Dec-2017

 ----------------------------------------------------------------------
 # B3LYP/6-31+G* IRC=(CALCALL, maxpoints=40, StepSize=15, maxcyc=100, R
 eport=Cartesians)
 ----------------------------------------------------------------------

 ----------
 pp_5_0 IRC
 ----------
 Symbolic Z-matrix:
 Charge =  0 Multiplicity = 1

 SCF Done:  E(RB3LYP) =  -343.390960113     A.U. after   16 cycles
 SCF Done:  E(RB3LYP) =  -343.393998652     A.U. after   14 cycles
 SCF Done:  E(RB3LYP) =  -343.394007746     A.U. after   10 cycles
 SCF Done:  E(RB3LYP) =  -343.402279254     A.U. after   13 cycles
 SCF Done:  E(RB3LYP) =  -343.414261484     A.U. after   13 cycles
 SCF Done:  E(RB3LYP) =  -343.428548099     A.U. after   13 cycles
 SCF Done:  E(RB3LYP) =  -343.443903576     A.U. after   12 cycles
 SCF Done:  E(RB3LYP) =  -343.459124316     A.U. after   12 cycles
 SCF Done:  E(RB3LYP) =  -343.472934444     A.U. after   12 cycles
 SCF Done:  E(RB3LYP) =  -343.483957249     A.U. after   11 cycles
 SCF Done:  E(RB3LYP) =  -343.574002101     A.U. after   11 cycles
 SCF Done:  E(RB3LYP) =  -343.574005987     A.U. after    9 cycles
 SCF Done:  E(RB3LYP) =  -343.574155838     A.U. after   11 cycles
 SCF Done:  E(RB3LYP) =  -343.574159919     A.U. after    9 cycles
 SCF Done:  E(RB3LYP) =  -343.574282594     A.U. after   11 cycles
 SCF Done:  E(RB3LYP) =  -343.574286850     A.U. after    9 cycles
 SCF Done:  E(RB3LYP) =  -343.574380194     A.U. after   11 cycles
 SCF Done:  E(RB3LYP) =  -343.574384641     A.U. after    9 cycles
 SCF Done:  E(RB3LYP) =  -343.574446735     A.U. after   11 cycles
 SCF Done:  E(RB3LYP) =  -343.574451428     A.U. after    9 cycles

                          Input orientation:
 ---------------------------------------------------------------------
 Center     Atomic      Atomic             Coordinates (Angstroms)
 Number     Number       Type             X           Y           Z
 ---------------------------------------------------------------------
      1          6           0        1.335281    0.468325   -0.323655
      2          6           0       -0.664390   -0.812226   -0.350102
      3          6           0       -1.635346    0.081912    0.411763
      4          8           0        0.666645   -0.709823    0.121076
      5          8           0        2.645172    0.447518    0.136643
      6          8           0       -2.701071    0.448903   -0.032555
      7          1           0        2.636564    0.418374    1.107489
      8          1           0        1.388779    0.484457   -1.419450
      9          1           0        0.786655    1.358079    0.033300
     10          1           0       -1.310716    0.356112    1.440161
     11          1           0       -0.970095   -1.853125   -0.181778
     12          1           0       -0.744249   -0.609511   -1.428648
 ---------------------------------------------------------------------

 Alpha  occ. eigenvalues --  -19.18938 -19.18714 -19.18269 -10.30777 -10.30282
 Alpha  occ. eigenvalues --  -10.26871  -1.09598  -1.07496  -1.03594  -0.76409
 Alpha  occ. eigenvalues --   -0.68845  -0.61372  -0.55799  -0.53629  -0.50866
 Alpha  occ. eigenvalues --   -0.47968  -0.46360  -0.45573  -0.40071  -0.38240
 Alpha  occ. eigenvalues --   -0.36744  -0.32732  -0.30765  -0.27143
 Alpha virt. eigenvalues --   -0.05883  -0.00468   0.00897   0.01923   0.02436
 Alpha virt. eigenvalues --    0.04541   0.05824   0.06408   0.07019   0.08375
 Alpha virt. eigenvalues --    0.10649   0.11162   0.13469   0.15261   0.16209

 Mulliken charges:
               1
     1  C    0.013779
     2  C   -0.292417
     3  C    0.173227
     4  O   -0.379059
     5  O   -0.604457
     6  O   -0.344511
     7  H    0.462564
     8  H    0.186447
     9  H    0.163834
    10  H    0.172611
    11  H    0.231299
    12  H    0.216684
 Sum of Mulliken charges =  -0.00000

 Dipole moment (field-independent basis, Debye):
    X=              0.6663    Y=             -0.1067    Z=              0.9396  Tot=              1.1568
 Quadrupole moment (field-independent basis, Debye-Ang):
   XX=            -50.5127   YY=            -36.0240   ZZ=            -31.9687
   XY=              4.4236   XZ=              1.7173   YZ=              1.2657

  Exact polarizability:   0.000   0.000   0.000   0.000   0.000   0.000
 Approx polarizability:  74.586  -4.368  55.383   7.748  -0.176  61.340

 Normal termination of Gaussian 16 at Wed Dec 23 22:32:59 2020.
