 Gaussian 16, Revision B.01,
 Gaussian 16:  ES64L-G16RevB.01 20-Dec-2017

 ----------------------------------------------------------------------
 # B3LYP/6-31+G* IRC=(CALCALL, maxpoints=40, StepSize=15, maxcyc=100, R
 eport=Cartesians)
 ----------------------------------------------------------------------

 ----------
 pp_6_0 IRC
 ----------
 Symbolic Z-matrix:
 Charge =  0 Multiplicity = 1

 SCF Done:  E(RB3LYP) =  -343.414969885     A.U. after   15 cycles
 SCF Done:  E(RB3LYP) =  -343.415744379     A.U. after   15 cycles
 SCF Done:  E(RB3LYP) =  -343.418865274     A.U. after   14 cycles
 SCF Done:  E(RB3LYP) =  -343.425327886     A.U. after   14 cycles
 SCF Done:  E(RB3LYP) =  -343.435537880     A.U. after   13 cycles
 SCF Done:  E(RB3LYP) =  -343.448935774     A.U. after   13 cycles
 SCF Done:  E(RB3LYP) =  -343.463927884     A.U. after   12 cycles
 SCF Done:  E(RB3LYP) =  -343.478136487     A.U. after   11 cycles
 SCF Done:  E(RB3LYP) =  -343.489439420     A.U. after   11 cycles
 SCF Done:  E(RB3LYP) =  -343.498097086     A.U. after   11 cycles
 SCF Done:  E(RB3LYP) =  -343.476311450     A.U. after   10 cycles
 SCF Done:  E(RB3LYP) =  -343.477562303     A.U. after   10 cycles
 SCF Done:  E(RB3LYP) =  -343.478717474     A.U. after   11 cycles
 SCF Done:  E(RB3LYP) =  -343.479779834     A.U. after   11 cycles
 SCF Done:  E(RB3LYP) =  -343.480752693     A.U. after   10 cycles
 SCF Done:  E(RB3LYP) =  -343.481640432     A.U. after   10 cycles
 SCF Done:  E(RB3LYP) =  -343.482449052     A.U. after   11 cycles
 SCF Done:  E(RB3LYP) =  -343.483186450     A.U. after   11 cycles
 SCF Done:  E(RB3LYP) =  -343.483862216     A.U. after   11 cycles
 SCF Done:  E(RB3LYP) =  -343.484486763     A.U. after   11 cycles

                          Input orientation:
 ---------------------------------------------------------------------
 Center     Atomic      Atomic             Coordinates (Angstroms)
 Number     Number       Type             X           Y           Z
 ---------------------------------------------------------------------
      1          6           0       -2.224172    0.741727    0.094565
      2          6           0        0.757557   -1.010560   -0.116196
      3          6           0        1.885994    0.019774   -0.156705
      4          8           0       -1.512038   -0.410126   -0.368349
      5          8           0       -0.397565   -0.585117    0.575766
      6          8           0        1.762827    1.216553   -0.041040
      7          1           0       -1.534158    1.413636    0.611371
      8          1           0       -2.615233    1.234976   -0.802220
      9          1           0       -3.046421    0.450803    0.759811
     10          1           0        2.888731   -0.437043   -0.326263
     11          1           0        0.509704   -1.295131   -1.148400
     12          1           0        1.133303   -1.914069    0.388591
 ---------------------------------------------------------------------

 Alpha  occ. eigenvalues --  -19.22317 -19.22154 -19.17898 -10.30069 -10.26753
 Alpha  occ. eigenvalues --  -10.23867  -1.12743  -1.07113  -0.94788  -0.74702
 Alpha  occ. eigenvalues --   -0.68044  -0.59620  -0.53363  -0.51544  -0.49570
 Alpha  occ. eigenvalues --   -0.46689  -0.44633  -0.44114  -0.41778  -0.39179
 Alpha  occ. eigenvalues --   -0.36050  -0.33341  -0.28575  -0.25433
 Alpha virt. eigenvalues --   -0.05228  -0.01631   0.00609   0.01873   0.03239
 Alpha virt. eigenvalues --    0.03776   0.04197   0.05412   0.06482   0.08228
 Alpha virt. eigenvalues --    0.08804   0.09591   0.10482   0.14130   0.15786

 Mulliken charges:
               1
     1  C   -0.403009
     2  C   -0.291565
     3  C    0.195468
     4  O   -0.234471
     5  O   -0.158427
     6  O   -0.342412
     7  H    0.229667
     8  H    0.200647
     9  H    0.193476
    10  H    0.156911
    11  H    0.243162
    12  H    0.210552
 Sum of Mulliken charges =  -0.00000

 Dipole moment (field-independent basis, Debye):
    X=              0.1766    Y=             -1.5180    Z=             -0.6678  Tot=              1.6678
 Quadrupole moment (field-independent basis, Debye-Ang):
   XX=            -31.8505   YY=            -37.3517   ZZ=            -35.8530
   XY=             -8.7319   XZ=             -0.8565   YZ=              0.5238

  Exact polarizability:   0.000   0.000   0.000   0.000   0.000   0.000
 Approx polarizability:  73.036  -7.205  75.337   3.226   1.770  55.171

 Normal termination of Gaussian 16 at Wed Dec 23 22:38:57 2020.
