 Gaussian 16, Revision B.01,
 Gaussian 16:  ES64L-G16RevB.01 20-Dec-2017

 ----------------------------------------------------------------------
 # B3LYP/6-31+G* IRC=(CALCALL, maxpoints=60, StepSize=10, maxcyc=100, R
 eport=Cartesians)
 ----------------------------------------------------------------------

 ----------
 pp_7_0 IRC
 ----------
 Symbolic Z-matrix:
 Charge =  0 Multiplicity = 1

 SCF Done:  E(RB3LYP) =  -343.409967237     A.U. after   14 cycles
 SCF Done:  E(RB3LYP) =  -343.410379410     A.U. after   11 cycles
 SCF Done:  E(RB3LYP) =  -343.411600164     A.U. after   12 cycles
 SCF Done:  E(RB3LYP) =  -343.413574570     A.U. after   12 cycles
 SCF Done:  E(RB3LYP) =  -343.416223664     A.U. after   12 cycles
 SCF Done:  E(RB3LYP) =  -343.419450950     A.U. after   12 cycles
 SCF Done:  E(RB3LYP) =  -343.423148538     A.U. after   12 cycles
 SCF Done:  E(RB3LYP) =  -343.427200897     A.U. after   11 cycles
 SCF Done:  E(RB3LYP) =  -343.431487752     A.U. after   11 cycles
 SCF Done:  E(RB3LYP) =  -343.435887794     A.U. after   11 cycles
 SCF Done:  E(RB3LYP) =  -343.483219719     A.U. after   11 cycles
 SCF Done:  E(RB3LYP) =  -343.483363054     A.U. after   11 cycles
 SCF Done:  E(RB3LYP) =  -343.483488630     A.U. after   11 cycles
 SCF Done:  E(RB3LYP) =  -343.483597251     A.U. after   11 cycles
 SCF Done:  E(RB3LYP) =  -343.483689844     A.U. after   11 cycles
 SCF Done:  E(RB3LYP) =  -343.483690826     A.U. after    8 cycles
 SCF Done:  E(RB3LYP) =  -343.483767432     A.U. after   11 cycles
 SCF Done:  E(RB3LYP) =  -343.483830931     A.U. after   11 cycles
 SCF Done:  E(RB3LYP) =  -343.483831487     A.U. after    8 cycles
 SCF Done:  E(RB3LYP) =  -343.483881733     A.U. after   11 cycles

                          Input orientation:
 ---------------------------------------------------------------------
 Center     Atomic      Atomic             Coordinates (Angstroms)
 Number     Number       Type             X           Y           Z
 ---------------------------------------------------------------------
      1          6           0       -1.042834   -0.322411   -2.304787
      2          6           0       -1.431876   -1.472855   -1.749135
      3          6           0        0.132866   -0.084305    1.222330
      4          8           0        1.106664    0.670319    0.622581
      5          8           0        0.587947    2.014416    0.403866
      6          8           0        0.341088   -1.238958    1.469024
      7          1           0        1.311856    2.533482    0.801952
      8          1           0       -1.742622    0.327265   -2.826909
      9          1           0       -0.009431    0.014931   -2.260229
     10          1           0       -0.783471    0.490124    1.417663
     11          1           0       -0.733924   -2.122155   -1.225545
     12          1           0       -2.465979   -1.809393   -1.796007
 ---------------------------------------------------------------------

 Alpha  occ. eigenvalues --  -19.27813 -19.26134 -19.18222 -10.34638 -10.19206
 Alpha  occ. eigenvalues --  -10.19109  -1.18684  -1.08748  -0.96325  -0.76144
 Alpha  occ. eigenvalues --   -0.64533  -0.59825  -0.58226  -0.52977  -0.49165
 Alpha  occ. eigenvalues --   -0.47083  -0.46020  -0.42612  -0.42177  -0.37779
 Alpha  occ. eigenvalues --   -0.35781  -0.32463  -0.31262  -0.27481
 Alpha virt. eigenvalues --   -0.04506  -0.03217  -0.00518   0.00585   0.02694
 Alpha virt. eigenvalues --    0.03355   0.03810   0.05541   0.06536   0.08252
 Alpha virt. eigenvalues --    0.09580   0.09612   0.11463   0.13285   0.13443

 Mulliken charges:
               1
     1  C   -0.375537
     2  C   -0.376520
     3  C    0.286826
     4  O   -0.103699
     5  O   -0.486647
     6  O   -0.384972
     7  H    0.483062
     8  H    0.182342
     9  H    0.193085
    10  H    0.198928
    11  H    0.200394
    12  H    0.182740
 Sum of Mulliken charges =  -0.00000

 Dipole moment (field-independent basis, Debye):
    X=             -0.0996    Y=              3.1748    Z=              0.6479  Tot=              3.2418
 Quadrupole moment (field-independent basis, Debye-Ang):
   XX=            -33.8229   YY=            -33.9691   ZZ=            -37.5549
   XY=              5.0057   XZ=              0.7686   YZ=              4.7270

  Exact polarizability:   0.000   0.000   0.000   0.000   0.000   0.000
 Approx polarizability:  60.395   5.702 103.124  -3.487 -19.525  54.275

 Normal termination of Gaussian 16 at Tue Jul 21 19:24:58 2020.
