 Gaussian 16, Revision B.01,
 Gaussian 16:  ES64L-G16RevB.01 20-Dec-2017

 ----------------------------------------------------------------------
 # B3LYP/6-31+G* IRC=(CALCALL, maxpoints=40, StepSize=15, maxcyc=100, R
 eport=Cartesians)
 ----------------------------------------------------------------------

 ----------
 pp_8_1 IRC
 ----------
 Symbolic Z-matrix:
 Charge =  0 Multiplicity = 1

 SCF Done:  E(RB3LYP) =  -343.409710595     A.U. after   15 cycles
 SCF Done:  E(RB3LYP) =  -343.410567744     A.U. after   12 cycles
 SCF Done:  E(RB3LYP) =  -343.413481757     A.U. after   12 cycles
 SCF Done:  E(RB3LYP) =  -343.418617132     A.U. after   13 cycles
 SCF Done:  E(RB3LYP) =  -343.425641274     A.U. after   12 cycles
 SCF Done:  E(RB3LYP) =  -343.433766520     A.U. after   12 cycles
 SCF Done:  E(RB3LYP) =  -343.441908532     A.U. after   12 cycles
 SCF Done:  E(RB3LYP) =  -343.449015235     A.U. after   12 cycles
 SCF Done:  E(RB3LYP) =  -343.454663221     A.U. after   11 cycles
 SCF Done:  E(RB3LYP) =  -343.459195691     A.U. after   11 cycles
 SCF Done:  E(RB3LYP) =  -343.454878970     A.U. after   11 cycles
 SCF Done:  E(RB3LYP) =  -343.455909257     A.U. after   11 cycles
 SCF Done:  E(RB3LYP) =  -343.456879358     A.U. after   11 cycles
 SCF Done:  E(RB3LYP) =  -343.457791751     A.U. after   11 cycles
 SCF Done:  E(RB3LYP) =  -343.458648987     A.U. after   11 cycles
 SCF Done:  E(RB3LYP) =  -343.459453649     A.U. after   11 cycles
 SCF Done:  E(RB3LYP) =  -343.460208320     A.U. after   11 cycles
 SCF Done:  E(RB3LYP) =  -343.460915566     A.U. after   11 cycles
 SCF Done:  E(RB3LYP) =  -343.461577922     A.U. after   11 cycles
 SCF Done:  E(RB3LYP) =  -343.462197874     A.U. after   11 cycles

                          Input orientation:
 ---------------------------------------------------------------------
 Center     Atomic      Atomic             Coordinates (Angstroms)
 Number     Number       Type             X           Y           Z
 ---------------------------------------------------------------------
      1          6           0       -0.113274    0.890635   -0.997938
      2          6           0       -1.019906    1.093096   -0.025369
      3          6           0       -1.996814    0.051941    0.331674
      4          8           0        1.592926    0.096759    0.509794
      5          8           0        2.713863   -0.753431    0.148461
      6          8           0       -2.031206   -1.068621   -0.158899
      7          1           0        3.443694   -0.271956    0.577725
      8          1           0       -0.095492   -0.045143   -1.549607
      9          1           0        0.608309    1.648598   -1.281428
     10          1           0       -2.742478    0.336442    1.103876
     11          1           0       -1.058429    2.028008    0.530290
     12          1           0        0.997544   -0.552676    0.929161
 ---------------------------------------------------------------------

 Alpha  occ. eigenvalues --  -19.23819 -19.23380 -19.15400 -10.28131 -10.22322
 Alpha  occ. eigenvalues --  -10.20392  -1.14277  -1.04534  -0.92520  -0.79693
 Alpha  occ. eigenvalues --   -0.66397  -0.55414  -0.54802  -0.52356  -0.51087
 Alpha  occ. eigenvalues --   -0.45205  -0.44595  -0.42757  -0.40040  -0.38889
 Alpha  occ. eigenvalues --   -0.35479  -0.30957  -0.27069  -0.26380
 Alpha virt. eigenvalues --   -0.07562  -0.01609   0.00243   0.01908   0.03001
 Alpha virt. eigenvalues --    0.04177   0.05387   0.06033   0.07173   0.07509
 Alpha virt. eigenvalues --    0.08531   0.10799   0.11638   0.11915   0.13508

 Mulliken charges:
               1
     1  C   -0.602483
     2  C    0.151311
     3  C    0.018469
     4  O   -0.405064
     5  O   -0.488028
     6  O   -0.425247
     7  H    0.470051
     8  H    0.240197
     9  H    0.213068
    10  H    0.153789
    11  H    0.187057
    12  H    0.486879
 Sum of Mulliken charges =  -0.00000

 Dipole moment (field-independent basis, Debye):
    X=              2.1151    Y=              2.5315    Z=              1.6412  Tot=              3.6845
 Quadrupole moment (field-independent basis, Debye-Ang):
   XX=            -33.1462   YY=            -38.9246   ZZ=            -34.1425
   XY=             -2.8997   XZ=              0.1281   YZ=             -1.4752

  Exact polarizability:   0.000   0.000   0.000   0.000   0.000   0.000
 Approx polarizability:  90.155   3.683  77.656 -20.060   5.612  67.161

 Normal termination of Gaussian 16 at Wed Dec 23 22:39:53 2020.
