 Gaussian 16, Revision B.01,
 Gaussian 16:  ES64L-G16RevB.01 20-Dec-2017

 ----------------------------------------------------------------------
 # B3LYP/6-31+G* IRC=(CALCALL, maxpoints=40, StepSize=15, maxcyc=100, R
 eport=Cartesians)
 ----------------------------------------------------------------------

 ----------
 pp_8_0 IRC
 ----------
 Symbolic Z-matrix:
 Charge =  0 Multiplicity = 1

 SCF Done:  E(RB3LYP) =  -343.409028702     A.U. after   15 cycles
 SCF Done:  E(RB3LYP) =  -343.409883046     A.U. after   13 cycles
 SCF Done:  E(RB3LYP) =  -343.412783064     A.U. after   13 cycles
 SCF Done:  E(RB3LYP) =  -343.417874436     A.U. after   12 cycles
 SCF Done:  E(RB3LYP) =  -343.424790378     A.U. after   12 cycles
 SCF Done:  E(RB3LYP) =  -343.432697575     A.U. after   12 cycles
 SCF Done:  E(RB3LYP) =  -343.440478931     A.U. after   12 cycles
 SCF Done:  E(RB3LYP) =  -343.447127549     A.U. after   12 cycles
 SCF Done:  E(RB3LYP) =  -343.452375409     A.U. after   12 cycles
 SCF Done:  E(RB3LYP) =  -343.456616948     A.U. after   11 cycles
 SCF Done:  E(RB3LYP) =  -343.458590433     A.U. after   11 cycles
 SCF Done:  E(RB3LYP) =  -343.459586632     A.U. after   11 cycles
 SCF Done:  E(RB3LYP) =  -343.460522990     A.U. after   11 cycles
 SCF Done:  E(RB3LYP) =  -343.461402634     A.U. after   11 cycles
 SCF Done:  E(RB3LYP) =  -343.462228564     A.U. after   11 cycles
 SCF Done:  E(RB3LYP) =  -343.463003645     A.U. after   11 cycles
 SCF Done:  E(RB3LYP) =  -343.463730617     A.U. after   11 cycles
 SCF Done:  E(RB3LYP) =  -343.464412104     A.U. after   11 cycles
 SCF Done:  E(RB3LYP) =  -343.465050618     A.U. after   11 cycles
 SCF Done:  E(RB3LYP) =  -343.465648556     A.U. after   11 cycles

                          Input orientation:
 ---------------------------------------------------------------------
 Center     Atomic      Atomic             Coordinates (Angstroms)
 Number     Number       Type             X           Y           Z
 ---------------------------------------------------------------------
      1          6           0        0.106452    1.344049    0.290627
      2          6           0       -0.926890    0.777258   -0.352792
      3          6           0       -1.843394   -0.114805    0.362160
      4          8           0        1.616018   -0.528274   -0.068810
      5          8           0        3.066605   -0.527924   -0.090274
      6          8           0       -2.876329   -0.563417   -0.107736
      7          1           0        3.255619   -1.271658    0.510023
      8          1           0        0.792319    2.032638   -0.192709
      9          1           0        0.291515    1.140720    1.342226
     10          1           0       -1.547715   -0.357549    1.406882
     11          1           0        1.406204   -0.710610   -1.004527
     12          1           0       -1.147345    0.979852   -1.399258
 ---------------------------------------------------------------------

 Alpha  occ. eigenvalues --  -19.24283 -19.23891 -19.15249 -10.27885 -10.22813
 Alpha  occ. eigenvalues --  -10.20792  -1.14810  -1.04407  -0.92974  -0.80638
 Alpha  occ. eigenvalues --   -0.65213  -0.57711  -0.56178  -0.52271  -0.47992
 Alpha  occ. eigenvalues --   -0.47828  -0.45287  -0.42102  -0.39867  -0.39688
 Alpha  occ. eigenvalues --   -0.35306  -0.31778  -0.27821  -0.26097
 Alpha virt. eigenvalues --   -0.06663  -0.01965  -0.00156   0.02114   0.02383
 Alpha virt. eigenvalues --    0.03337   0.04027   0.06333   0.06970   0.07584
 Alpha virt. eigenvalues --    0.08842   0.09597   0.11462   0.12053   0.14044

 Mulliken charges:
               1
     1  C   -0.527630
     2  C    0.074578
     3  C    0.033103
     4  O   -0.395881
     5  O   -0.512909
     6  O   -0.407528
     7  H    0.471661
     8  H    0.215634
     9  H    0.213207
    10  H    0.154425
    11  H    0.477955
    12  H    0.203387
 Sum of Mulliken charges =  -0.00000

 Dipole moment (field-independent basis, Debye):
    X=              3.8022    Y=              0.0720    Z=              0.3920  Tot=              3.8231
 Quadrupole moment (field-independent basis, Debye-Ang):
   XX=            -48.2321   YY=            -33.9084   ZZ=            -32.3323
   XY=             -7.0524   XZ=              0.3320   YZ=             -0.9301

  Exact polarizability:   0.000   0.000   0.000   0.000   0.000   0.000
 Approx polarizability: 112.915  24.416  65.088  16.994   4.252  65.058

 Normal termination of Gaussian 16 at Wed Dec 23 22:38:56 2020.
