 Gaussian 16, Revision B.01,
 Gaussian 16:  ES64L-G16RevB.01 20-Dec-2017

 ----------------------------------------------------------------------
 # B3LYP/6-31+G* IRC=(CALCALL, maxpoints=40, StepSize=15, maxcyc=100, R
 eport=Cartesians)
 ----------------------------------------------------------------------

 ----------
 pp_9_2 IRC
 ----------
 Symbolic Z-matrix:
 Charge =  0 Multiplicity = 1

 SCF Done:  E(RB3LYP) =  -343.389178276     A.U. after   13 cycles
 SCF Done:  E(RB3LYP) =  -343.391280018     A.U. after   13 cycles
 SCF Done:  E(RB3LYP) =  -343.397255054     A.U. after   13 cycles
 SCF Done:  E(RB3LYP) =  -343.406283818     A.U. after   13 cycles
 SCF Done:  E(RB3LYP) =  -343.417331587     A.U. after   13 cycles
 SCF Done:  E(RB3LYP) =  -343.429312828     A.U. after   13 cycles
 SCF Done:  E(RB3LYP) =  -343.441200442     A.U. after   13 cycles
 SCF Done:  E(RB3LYP) =  -343.452158148     A.U. after   12 cycles
 SCF Done:  E(RB3LYP) =  -343.461694103     A.U. after   12 cycles
 SCF Done:  E(RB3LYP) =  -343.469681664     A.U. after   12 cycles
 SCF Done:  E(RB3LYP) =  -343.479583006     A.U. after   10 cycles
 SCF Done:  E(RB3LYP) =  -343.479940840     A.U. after   10 cycles
 SCF Done:  E(RB3LYP) =  -343.480259695     A.U. after   10 cycles
 SCF Done:  E(RB3LYP) =  -343.480541118     A.U. after   10 cycles
 SCF Done:  E(RB3LYP) =  -343.480786176     A.U. after   10 cycles
 SCF Done:  E(RB3LYP) =  -343.480995624     A.U. after   10 cycles
 SCF Done:  E(RB3LYP) =  -343.481170065     A.U. after   10 cycles
 SCF Done:  E(RB3LYP) =  -343.481310063     A.U. after   10 cycles
 SCF Done:  E(RB3LYP) =  -343.481416200     A.U. after   10 cycles
 SCF Done:  E(RB3LYP) =  -343.481489151     A.U. after   10 cycles

                          Input orientation:
 ---------------------------------------------------------------------
 Center     Atomic      Atomic             Coordinates (Angstroms)
 Number     Number       Type             X           Y           Z
 ---------------------------------------------------------------------
      1          6           0       -0.660171    0.455510    0.447734
      2          6           0        0.706893    0.512896   -0.152440
      3          6           0        1.716263   -0.227794    0.325988
      4          8           0       -1.503701   -0.253604   -0.479072
      5          8           0       -2.868355   -0.122417    0.034847
      6          8           0        3.003960   -0.240238   -0.112739
      7          1           0       -3.100915   -1.062434    0.140078
      8          1           0       -1.082226    1.457539    0.593113
      9          1           0       -0.655770   -0.067933    1.413577
     10          1           0        1.595396   -0.911181    1.162315
     11          1           0        3.106215    0.367866   -0.864741
     12          1           0        0.858410    1.178282   -1.002437
 ---------------------------------------------------------------------

 Alpha  occ. eigenvalues --  -19.21396 -19.21329 -19.20818 -10.26804 -10.24847
 Alpha  occ. eigenvalues --  -10.19978  -1.11792  -1.08247  -0.92156  -0.78785
 Alpha  occ. eigenvalues --   -0.68013  -0.62169  -0.53669  -0.53401  -0.48805
 Alpha  occ. eigenvalues --   -0.47381  -0.43341  -0.42081  -0.40945  -0.38422
 Alpha  occ. eigenvalues --   -0.37137  -0.32020  -0.26793  -0.25169
 Alpha virt. eigenvalues --   -0.01718  -0.00681   0.01094   0.02021   0.02552
 Alpha virt. eigenvalues --    0.03822   0.05832   0.07014   0.07939   0.09519
 Alpha virt. eigenvalues --    0.10625   0.10832   0.12101   0.13738   0.15952

 Mulliken charges:
               1
     1  C   -0.500829
     2  C    0.046739
     3  C    0.021540
     4  O   -0.136702
     5  O   -0.523121
     6  O   -0.586350
     7  H    0.466979
     8  H    0.198403
     9  H    0.178160
    10  H    0.192705
    11  H    0.465205
    12  H    0.177272
 Sum of Mulliken charges =  -0.00000

 Dipole moment (field-independent basis, Debye):
    X=              0.9081    Y=             -0.0454    Z=              0.4755  Tot=              1.0260
 Quadrupole moment (field-independent basis, Debye-Ang):
   XX=            -38.6644   YY=            -33.7677   ZZ=            -35.1638
   XY=              7.3815   XZ=             -5.6436   YZ=             -3.1314

  Exact polarizability:   0.000   0.000   0.000   0.000   0.000   0.000
 Approx polarizability: 102.469 -10.540  61.862   0.565  -6.887  59.610

 Normal termination of Gaussian 16 at Wed Dec 23 22:38:22 2020.
