 Gaussian 16, Revision B.01,
 Gaussian 16:  ES64L-G16RevB.01 20-Dec-2017

 ----------------------------------------------------------------------
 # B3LYP/6-31+G* IRC=(CALCALL, maxpoints=40, StepSize=15, maxcyc=100, R
 eport=Cartesians)
 ----------------------------------------------------------------------

 ----------
 pp_9_1 IRC
 ----------
 Symbolic Z-matrix:
 Charge =  0 Multiplicity = 1

 SCF Done:  E(RB3LYP) =  -343.392774942     A.U. after   14 cycles
 SCF Done:  E(RB3LYP) =  -343.393505033     A.U. after   13 cycles
 SCF Done:  E(RB3LYP) =  -343.395832245     A.U. after   13 cycles
 SCF Done:  E(RB3LYP) =  -343.399707820     A.U. after   13 cycles
 SCF Done:  E(RB3LYP) =  -343.404904228     A.U. after   12 cycles
 SCF Done:  E(RB3LYP) =  -343.411130401     A.U. after   12 cycles
 SCF Done:  E(RB3LYP) =  -343.418095392     A.U. after   12 cycles
 SCF Done:  E(RB3LYP) =  -343.425530748     A.U. after   12 cycles
 SCF Done:  E(RB3LYP) =  -343.433193539     A.U. after   12 cycles
 SCF Done:  E(RB3LYP) =  -343.440867839     A.U. after   12 cycles
 SCF Done:  E(RB3LYP) =  -343.431634223     A.U. after   12 cycles
 SCF Done:  E(RB3LYP) =  -343.432099763     A.U. after   12 cycles
 SCF Done:  E(RB3LYP) =  -343.432542880     A.U. after   12 cycles
 SCF Done:  E(RB3LYP) =  -343.432964442     A.U. after   12 cycles
 SCF Done:  E(RB3LYP) =  -343.433365166     A.U. after   12 cycles
 SCF Done:  E(RB3LYP) =  -343.433745601     A.U. after   12 cycles
 SCF Done:  E(RB3LYP) =  -343.434106233     A.U. after   12 cycles
 SCF Done:  E(RB3LYP) =  -343.434447578     A.U. after   12 cycles
 SCF Done:  E(RB3LYP) =  -343.434770016     A.U. after   11 cycles
 SCF Done:  E(RB3LYP) =  -343.435074043     A.U. after   11 cycles

                          Input orientation:
 ---------------------------------------------------------------------
 Center     Atomic      Atomic             Coordinates (Angstroms)
 Number     Number       Type             X           Y           Z
 ---------------------------------------------------------------------
      1          6           0       -2.474617   -1.082760    0.589072
      2          6           0        0.118725   -0.160866   -0.944803
      3          6           0        0.851176   -0.985320    0.082285
      4          8           0       -0.233365    0.959105   -0.966517
      5          8           0       -0.085087    1.757183    0.746301
      6          8           0        2.038425   -0.825896    0.207771
      7          1           0        0.317274    2.615919    0.510550
      8          1           0       -3.498910   -0.728696    0.441039
      9          1           0       -2.481700   -1.927965    1.284261
     10          1           0        0.246878   -1.746871    0.598738
     11          1           0       -1.879398   -0.262272    0.999721
     12          1           0       -2.084976   -1.412324   -0.380918
 ---------------------------------------------------------------------

 Alpha  occ. eigenvalues --  -19.31988 -19.22271 -19.15283 -10.35292 -10.34353
 Alpha  occ. eigenvalues --  -10.18716  -1.18605  -1.11627  -0.93846  -0.75077
 Alpha  occ. eigenvalues --   -0.71187  -0.60851  -0.56601  -0.51975  -0.50806
 Alpha  occ. eigenvalues --   -0.48729  -0.44183  -0.41646  -0.41126  -0.40893
 Alpha  occ. eigenvalues --   -0.40314  -0.34054  -0.28140  -0.26437
 Alpha virt. eigenvalues --   -0.14641  -0.09567  -0.05994   0.00335   0.02652
 Alpha virt. eigenvalues --    0.03207   0.03698   0.05924   0.06988   0.07253
 Alpha virt. eigenvalues --    0.08169   0.08607   0.09634   0.11700   0.13975

 Mulliken charges:
               1
     1  C   -0.830874
     2  C    0.030662
     3  C    0.301347
     4  O   -0.006839
     5  O   -0.733786
     6  O   -0.285875
     7  H    0.446543
     8  H    0.220231
     9  H    0.207601
    10  H    0.221438
    11  H    0.245108
    12  H    0.184444
 Sum of Mulliken charges =  -0.00000

 Dipole moment (field-independent basis, Debye):
    X=             -0.9130    Y=             -1.7632    Z=             -1.2259  Tot=              2.3335
 Quadrupole moment (field-independent basis, Debye-Ang):
   XX=            -41.0371   YY=            -32.4585   ZZ=            -38.5013
   XY=              3.6414   XZ=             -0.8370   YZ=             -2.4453

  Exact polarizability:   0.000   0.000   0.000   0.000   0.000   0.000
 Approx polarizability:  87.674 -29.058 173.821  -5.839  67.732 116.432

 Normal termination of Gaussian 16 at Wed Dec 23 22:38:41 2020.
