 Gaussian 16, Revision B.01,
 Gaussian 16:  ES64L-G16RevB.01 20-Dec-2017

 ----------------------------------------------------------------------
 # B3LYP/6-31+G* IRC=(CALCALL, maxpoints=40, StepSize=15, maxcyc=100, R
 eport=Cartesians)
 ----------------------------------------------------------------------

 ----------
 pp_9_0 IRC
 ----------
 Symbolic Z-matrix:
 Charge =  0 Multiplicity = 1

 SCF Done:  E(RB3LYP) =  -343.359024779     A.U. after   15 cycles
 SCF Done:  E(RB3LYP) =  -343.359852288     A.U. after   13 cycles
 SCF Done:  E(RB3LYP) =  -343.362272923     A.U. after   13 cycles
 SCF Done:  E(RB3LYP) =  -343.366055730     A.U. after   12 cycles
 SCF Done:  E(RB3LYP) =  -343.370858944     A.U. after   13 cycles
 SCF Done:  E(RB3LYP) =  -343.376297610     A.U. after   13 cycles
 SCF Done:  E(RB3LYP) =  -343.382002945     A.U. after   13 cycles
 SCF Done:  E(RB3LYP) =  -343.387661532     A.U. after   13 cycles
 SCF Done:  E(RB3LYP) =  -343.393033976     A.U. after   13 cycles
 SCF Done:  E(RB3LYP) =  -343.397958420     A.U. after   13 cycles
 SCF Done:  E(RB3LYP) =  -343.457716146     A.U. after   11 cycles
 SCF Done:  E(RB3LYP) =  -343.460608858     A.U. after   11 cycles
 SCF Done:  E(RB3LYP) =  -343.463373890     A.U. after   11 cycles
 SCF Done:  E(RB3LYP) =  -343.466000534     A.U. after   11 cycles
 SCF Done:  E(RB3LYP) =  -343.468484783     A.U. after   11 cycles
 SCF Done:  E(RB3LYP) =  -343.470828671     A.U. after   11 cycles
 SCF Done:  E(RB3LYP) =  -343.473038246     A.U. after   11 cycles
 SCF Done:  E(RB3LYP) =  -343.475121053     A.U. after   11 cycles
 SCF Done:  E(RB3LYP) =  -343.477084064     A.U. after   11 cycles
 SCF Done:  E(RB3LYP) =  -343.478932742     A.U. after   11 cycles

                          Input orientation:
 ---------------------------------------------------------------------
 Center     Atomic      Atomic             Coordinates (Angstroms)
 Number     Number       Type             X           Y           Z
 ---------------------------------------------------------------------
      1          6           0        0.153339    1.122489   -0.372632
      2          6           0       -0.968883    0.840261    0.645651
      3          6           0       -1.269004   -0.650393    0.474741
      4          8           0        1.067198    0.164676    0.250410
      5          8           0        2.276789   -0.340317   -0.383239
      6          8           0       -1.773403   -1.077369   -0.542156
      7          1           0        2.950639    0.127349    0.144650
      8          1           0        0.545411    2.146504   -0.352431
      9          1           0       -0.137249    0.825800   -1.384473
     10          1           0       -0.989615   -1.330928    1.301276
     11          1           0       -0.606602    1.058420    1.655402
     12          1           0       -1.868543    1.433021    0.444643
 ---------------------------------------------------------------------

 Alpha  occ. eigenvalues --  -19.22699 -19.22501 -19.16235 -10.28910 -10.26786
 Alpha  occ. eigenvalues --  -10.21816  -1.12555  -1.05746  -0.94061  -0.77747
 Alpha  occ. eigenvalues --   -0.66825  -0.58056  -0.55443  -0.51781  -0.48415
 Alpha  occ. eigenvalues --   -0.45931  -0.44603  -0.42742  -0.40369  -0.38930
 Alpha  occ. eigenvalues --   -0.36842  -0.31276  -0.29042  -0.26495
 Alpha virt. eigenvalues --   -0.03975  -0.01643   0.00534   0.01465   0.02441
 Alpha virt. eigenvalues --    0.04143   0.04872   0.06926   0.07305   0.08115
 Alpha virt. eigenvalues --    0.08959   0.11395   0.12455   0.12746   0.15485

 Mulliken charges:
               1
     1  C   -0.267039
     2  C   -0.413078
     3  C    0.170042
     4  O   -0.155243
     5  O   -0.495325
     6  O   -0.356439
     7  H    0.460323
     8  H    0.192660
     9  H    0.232933
    10  H    0.174702
    11  H    0.224069
    12  H    0.232396
 Sum of Mulliken charges =  -0.00000

 Dipole moment (field-independent basis, Debye):
    X=              1.2716    Y=              3.3822    Z=              2.1997  Tot=              4.2302
 Quadrupole moment (field-independent basis, Debye-Ang):
   XX=            -34.0214   YY=            -36.0427   ZZ=            -36.0029
   XY=             -0.6245   XZ=             -1.3767   YZ=             -2.5579

  Exact polarizability:   0.000   0.000   0.000   0.000   0.000   0.000
 Approx polarizability:  74.453  -3.310  64.559   3.657   4.483  68.596

 Normal termination of Gaussian 16 at Wed Dec 23 22:40:19 2020.
