 Gaussian 16, Revision B.01,
 Gaussian 16:  ES64L-G16RevB.01 20-Dec-2017

 --------------------------------------------------------------
 # B3LYP/6-31G** OPT=(TS, CALCALL, NOEIGEN, maxcycles=100) Freq
 --------------------------------------------------------------

 ---------
 pp_1_0 TS
 ---------
 Symbolic Z-matrix:
 Charge =  0 Multiplicity = 1

 SCF Done:  E(RB3LYP) =  -117.659221180     A.U. after   16 cycles
 SCF Done:  E(RB3LYP) =  -117.673690909     A.U. after   15 cycles
 SCF Done:  E(RB3LYP) =  -117.686233539     A.U. after   13 cycles
 SCF Done:  E(RB3LYP) =  -117.696360510     A.U. after   13 cycles
 SCF Done:  E(RB3LYP) =  -117.703395710     A.U. after   13 cycles
 SCF Done:  E(RB3LYP) =  -117.708046690     A.U. after   13 cycles
 SCF Done:  E(RB3LYP) =  -117.710252872     A.U. after   13 cycles
 SCF Done:  E(RB3LYP) =  -117.710553423     A.U. after   11 cycles
 SCF Done:  E(RB3LYP) =  -117.710578867     A.U. after    8 cycles
 SCF Done:  E(RB3LYP) =  -117.710576501     A.U. after    8 cycles
 SCF Done:  E(RB3LYP) =  -117.713771796     A.U. after   13 cycles
 SCF Done:  E(RB3LYP) =  -117.717433915     A.U. after   13 cycles
 SCF Done:  E(RB3LYP) =  -117.721477940     A.U. after   13 cycles
 SCF Done:  E(RB3LYP) =  -117.724382262     A.U. after   13 cycles
 SCF Done:  E(RB3LYP) =  -117.726335439     A.U. after   12 cycles
 SCF Done:  E(RB3LYP) =  -117.727325664     A.U. after   14 cycles
 SCF Done:  E(RB3LYP) =  -117.727572512     A.U. after   11 cycles
 SCF Done:  E(RB3LYP) =  -117.727596699     A.U. after   11 cycles
 SCF Done:  E(RB3LYP) =  -117.727597097     A.U. after    9 cycles
 Optimization completed.
    -- Stationary point found.
 ******    1 imaginary frequencies (negative Signs) ******
    1 imaginary frequencies ignored.
 Normal termination of Gaussian 16 at Fri Jul 17 17:26:44 2020.

 ----------------------------------------------------------------------
 #N Geom=AllCheck Guess=TCheck SCRF=Check GenChk RB3LYP/6-31G(d,p) Freq
 ----------------------------------------------------------------------

 Structure from the checkpoint file:  "/scratch/brown/zhao922/pyGSM/new-benchmarking/R1-3/TS-folder/Gau-203073.chk"
 ---------
 pp_1_0 TS
 ---------
 Charge =  0 Multiplicity = 1

                         Standard orientation:
 ---------------------------------------------------------------------
 Center     Atomic      Atomic             Coordinates (Angstroms)
 Number     Number       Type             X           Y           Z
 ---------------------------------------------------------------------
      1          6           0       -1.348562   -0.174779    0.050520
      2          6           0        0.436322    0.503899   -0.044480
      3          6           0        1.346936   -0.470316   -0.011007
      4          1           0        0.312825    1.557909    0.201561
      5          1           0       -1.479035    0.084439    1.095800
      6          1           0       -2.137655    0.283672   -0.555101
      7          1           0       -1.245410   -1.248001   -0.094490
      8          1           0       -0.402700    0.232759   -0.843236
      9          1           0        2.343800   -0.063601    0.225268
 ---------------------------------------------------------------------

 SCF Done:  E(RB3LYP) =  -117.727597097     A.U. after    1 cycles

 The electronic state is 1-A.
 Alpha  occ. eigenvalues --  -10.23628 -10.20795 -10.15022  -0.79854  -0.69544
 Alpha  occ. eigenvalues --   -0.55825  -0.48356  -0.45358  -0.41859  -0.37343
 Alpha  occ. eigenvalues --   -0.27435  -0.18258
 Alpha virt. eigenvalues --   -0.01994   0.04672   0.08901   0.12661   0.14400
 Alpha virt. eigenvalues --    0.15234   0.19492   0.20275   0.36471   0.45935
 Alpha virt. eigenvalues --    0.51089   0.53691   0.58198   0.59317   0.65627

 Mulliken charges:
               1
     1  C   -0.393328
     2  C   -0.297956
     3  C   -0.212160
     4  H    0.114352
     5  H    0.176100
     6  H    0.135146
     7  H    0.174143
     8  H    0.227375
     9  H    0.076327
 Sum of Mulliken charges =  -0.00000

 Dipole moment (field-independent basis, Debye):
    X=             -2.7798    Y=              1.8948    Z=              0.0692  Tot=              3.3649
 Quadrupole moment (field-independent basis, Debye-Ang):
   XX=            -19.6451   YY=            -22.1092   ZZ=            -19.9586
   XY=              2.3502   XZ=              0.8311   YZ=             -0.0196

  Exact polarizability:  57.839  -3.335  33.122   2.176   1.020  23.164
 Approx polarizability:  91.115 -11.610  50.347   3.821   1.052  33.051

 ******    1 imaginary frequencies (negative Signs) ******

                      1                      2                      3
                      A                      A                      A
 Frequencies --  -1142.1892               146.2306               328.9472
 Red. masses --      1.4955                 1.1532                 2.1051
 Frc consts  --      1.1495                 0.0145                 0.1342
 IR Inten    --     28.8685                 2.0688                 8.5071

                      4                      5                      6
                      A                      A                      A
 Frequencies --    517.6284               636.0476               800.3843
 Red. masses --      2.1949                 1.3274                 1.1483
 Frc consts  --      0.3465                 0.3164                 0.4334
 IR Inten    --     10.8852                84.8488                92.4818

                      7                      8                      9
                      A                      A                      A
 Frequencies --    949.2819               983.4933              1023.1021
 Red. masses --      1.2926                 1.3549                 1.2444
 Frc consts  --      0.6863                 0.7722                 0.7675
 IR Inten    --      9.4914                70.0290                25.7501

                     10                     11                     12
                      A                      A                      A
 Frequencies --   1153.3074              1261.5431              1306.3659
 Red. masses --      1.1767                 1.1540                 1.3160
 Frc consts  --      0.9221                 1.0821                 1.3232
 IR Inten    --     14.3888                11.9927                 3.3212

                     13                     14                     15
                      A                      A                      A
 Frequencies --   1451.6738              1496.2251              1587.8579
 Red. masses --      1.0723                 1.0503                 2.3572
 Frc consts  --      1.3314                 1.3853                 3.5016
 IR Inten    --     10.3606                 7.0929                92.1083

                     16                     17                     18
                      A                      A                      A
 Frequencies --   2433.6656              3038.2288              3054.7186
 Red. masses --      1.0510                 1.0821                 1.0351
 Frc consts  --      3.6674                 5.8854                 5.6911
 IR Inten    --     13.0522                49.3374                18.0168

                     19                     20                     21
                      A                      A                      A
 Frequencies --   3130.3159              3189.1078              3239.6230
 Red. masses --      1.1005                 1.0959                 1.1112
 Frc consts  --      6.3533                 6.5668                 6.8710
 IR Inten    --     37.5222                 3.1724                 0.4240

 - Thermochemistry -
 -------------------
 Temperature   298.150 Kelvin.  Pressure   1.00000 Atm.
 Atom     1 has atomic number  6 and mass  12.00000

 Molecular mass:    42.04695 amu.
 Principal axes and moments of inertia in atomic units:
                           1         2         3
     Eigenvalues --    44.92856 222.48514 250.38504
           X            0.99974   0.02000   0.01093
           Y           -0.02023   0.99957   0.02130
           Z           -0.01050  -0.02151   0.99971
 This molecule is an asymmetric top.
 Rotational symmetry number  1.
 Rotational temperatures (Kelvin)      1.92781     0.38930     0.34592
 Rotational constants (GHZ):          40.16913     8.11174     7.20786
    1 imaginary frequencies ignored.
 Zero-point vibrational energy     189774.1 (Joules/Mol)
                                   45.35709 (Kcal/Mol)
 Warning -- explicit consideration of   3 degrees of freedom as
           vibrations may cause significant error
 Vibrational temperatures:    210.39   473.28   744.75   915.13  1151.57
          (Kelvin)           1365.80  1415.03  1472.02  1659.35  1815.08
                             1879.57  2088.63  2152.73  2284.57  3501.50
                             4371.33  4395.06  4503.83  4588.41  4661.09

 Zero-point correction=                           0.072281 (Hartree/Particle)
 Thermal correction to Energy=                    0.076756
 Thermal correction to Enthalpy=                  0.077700
 Thermal correction to Gibbs Free Energy=         0.046712
 Sum of electronic and zero-point Energies=           -117.655316
 Sum of electronic and thermal Energies=              -117.650841
 Sum of electronic and thermal Enthalpies=            -117.649897
 Sum of electronic and thermal Free Energies=         -117.680885

                     E (Thermal)             CV                S
                      KCal/Mol        Cal/Mol-Kelvin    Cal/Mol-Kelvin
 Total                   48.165             14.260             65.221
 Electronic               0.000              0.000              0.000
 Translational            0.889              2.981             37.135
 Rotational               0.889              2.981             22.442
 Vibrational             46.388              8.299              5.643
 Vibration     1          0.617              1.907              2.721
 Vibration     2          0.712              1.618              1.265
 Vibration     3          0.873              1.211              0.615

 Optimization completed.
    -- Stationary point found.
 Normal termination of Gaussian 16 at Fri Jul 17 17:26:50 2020.
