 Gaussian 16, Revision B.01,
 Gaussian 16:  ES64L-G16RevB.01 20-Dec-2017

 --------------------------------------------------------------
 # B3LYP/6-31G** OPT=(TS, CALCALL, NOEIGEN, maxcycles=100) Freq
 --------------------------------------------------------------

 ---------
 pp_2_2 TS
 ---------
 Symbolic Z-matrix:
 Charge =  0 Multiplicity = 1

 SCF Done:  E(RB3LYP) =  -117.735328826     A.U. after   16 cycles
 SCF Done:  E(RB3LYP) =  -117.735778665     A.U. after   15 cycles
 SCF Done:  E(RB3LYP) =  -117.753776957     A.U. after   15 cycles
 SCF Done:  E(RB3LYP) =  -117.760424426     A.U. after   13 cycles
 SCF Done:  E(RB3LYP) =  -117.767533188     A.U. after   14 cycles
 SCF Done:  E(RB3LYP) =  -117.770968746     A.U. after   14 cycles
 SCF Done:  E(RB3LYP) =  -117.773159454     A.U. after   14 cycles
 SCF Done:  E(RB3LYP) =  -117.773225728     A.U. after   12 cycles
 SCF Done:  E(RB3LYP) =  -117.773226204     A.U. after    8 cycles
 Optimization completed.
    -- Stationary point found.
 ******    1 imaginary frequencies (negative Signs) ******
    1 imaginary frequencies ignored.
 Normal termination of Gaussian 16 at Fri Jul 17 17:29:20 2020.

 ----------------------------------------------------------------------
 #N Geom=AllCheck Guess=TCheck SCRF=Check GenChk RB3LYP/6-31G(d,p) Freq
 ----------------------------------------------------------------------

 Structure from the checkpoint file:  "/scratch/brown/zhao922/pyGSM/new-benchmarking/R1-3/TS-folder/Gau-220522.chk"
 ---------
 pp_2_2 TS
 ---------
 Charge =  0 Multiplicity = 1

                         Standard orientation:
 ---------------------------------------------------------------------
 Center     Atomic      Atomic             Coordinates (Angstroms)
 Number     Number       Type             X           Y           Z
 ---------------------------------------------------------------------
      1          6           0       -1.267284   -0.232449   -0.140421
      2          6           0        0.022552    0.502970   -0.007181
      3          6           0        1.250858   -0.237640    0.030165
      4          1           0        0.063463    1.491451   -0.481323
      5          1           0       -2.104065    0.087598    0.479045
      6          1           0       -1.228046   -1.299853   -0.351506
      7          1           0       -0.151412    0.688488    1.089794
      8          1           0        1.270272   -1.195156    0.539868
      9          1           0        2.113036    0.030191   -0.571256
 ---------------------------------------------------------------------

 SCF Done:  E(RB3LYP) =  -117.773226204     A.U. after    1 cycles

 The electronic state is 1-A.
 Alpha  occ. eigenvalues --  -10.20577 -10.18753 -10.18375  -0.79588  -0.65517
 Alpha  occ. eigenvalues --   -0.56922  -0.46239  -0.44069  -0.40068  -0.36551
 Alpha  occ. eigenvalues --   -0.34985  -0.16345
 Alpha virt. eigenvalues --   -0.07839   0.10079   0.13046   0.14661   0.15532
 Alpha virt. eigenvalues --    0.17968   0.21744   0.26758   0.32335   0.49578
 Alpha virt. eigenvalues --    0.53140   0.55593   0.59951   0.61120   0.62220

 Mulliken charges:
               1
     1  C   -0.273778
     2  C   -0.189483
     3  C   -0.259305
     4  H    0.125593
     5  H    0.096557
     6  H    0.106496
     7  H    0.183199
     8  H    0.104334
     9  H    0.106386
 Sum of Mulliken charges =  -0.00000

 Dipole moment (field-independent basis, Debye):
    X=              0.1875    Y=              0.3363    Z=              0.7444  Tot=              0.8381
 Quadrupole moment (field-independent basis, Debye-Ang):
   XX=            -21.1161   YY=            -19.0980   ZZ=            -20.7281
   XY=             -0.0088   XZ=             -1.8063   YZ=             -0.0009

  Exact polarizability:  72.362  -1.116  30.446   1.855  -0.385  23.930
 Approx polarizability: 257.581  -4.464  40.686  28.293  -0.078  38.069

 ******    1 imaginary frequencies (negative Signs) ******

                      1                      2                      3
                      A                      A                      A
 Frequencies --   -468.5367               425.0560               575.2668
 Red. masses --      1.1746                 1.4111                 1.3906
 Frc consts  --      0.1519                 0.1502                 0.2711
 IR Inten    --     18.0344                10.4258                17.0628

                      4                      5                      6
                      A                      A                      A
 Frequencies --    612.8961               671.0977               725.8733
 Red. masses --      1.1670                 1.3143                 1.5821
 Frc consts  --      0.2583                 0.3488                 0.4912
 IR Inten    --     38.2059                78.1644               128.0396

                      7                      8                      9
                      A                      A                      A
 Frequencies --    826.0971               967.5812              1016.8544
 Red. masses --      1.2254                 1.5600                 1.3607
 Frc consts  --      0.4927                 0.8605                 0.8290
 IR Inten    --     57.7719                 8.8623                10.4453

                     10                     11                     12
                      A                      A                      A
 Frequencies --   1152.9136              1201.3802              1320.3117
 Red. masses --      1.6996                 1.5230                 1.1760
 Frc consts  --      1.3310                 1.2951                 1.2079
 IR Inten    --     22.4229                26.2363                20.3877

                     13                     14                     15
                      A                      A                      A
 Frequencies --   1366.6402              1492.3383              1510.5691
 Red. masses --      1.5472                 1.1621                 1.3656
 Frc consts  --      1.7025                 1.5249                 1.8359
 IR Inten    --      5.5626                 3.5275                 3.5706

                     16                     17                     18
                      A                      A                      A
 Frequencies --   2820.4969              3053.5310              3115.9582
 Red. masses --      1.0667                 1.0862                 1.0522
 Frc consts  --      4.9996                 5.9673                 6.0191
 IR Inten    --      7.7906                22.4469                 7.5172

                     19                     20                     21
                      A                      A                      A
 Frequencies --   3163.0355              3219.8247              3264.7710
 Red. masses --      1.0530                 1.1154                 1.1178
 Frc consts  --      6.2072                 6.8132                 7.0200
 IR Inten    --      2.8126                26.7994                12.7718

 - Thermochemistry -
 -------------------
 Temperature   298.150 Kelvin.  Pressure   1.00000 Atm.
 Atom     1 has atomic number  6 and mass  12.00000

 Molecular mass:    42.04695 amu.
 Principal axes and moments of inertia in atomic units:
                           1         2         3
     Eigenvalues --    45.86032 188.66642 215.89670
           X            0.99964  -0.00184  -0.02695
           Y            0.00138   0.99985  -0.01731
           Z            0.02697   0.01726   0.99949
 This molecule is an asymmetric top.
 Rotational symmetry number  1.
 Rotational temperatures (Kelvin)      1.88865     0.45908     0.40118
 Rotational constants (GHZ):          39.35300     9.56578     8.35928
    1 imaginary frequencies ignored.
 Zero-point vibrational energy     194408.1 (Joules/Mol)
                                   46.46465 (Kcal/Mol)
 Warning -- explicit consideration of   3 degrees of freedom as
           vibrations may cause significant error
 Vibrational temperatures:    611.56   827.68   881.82   965.56  1044.37
          (Kelvin)           1188.57  1392.13  1463.03  1658.79  1728.52
                             1899.63  1966.29  2147.14  2173.37  4058.07
                             4393.35  4483.17  4550.90  4632.61  4697.28

 Zero-point correction=                           0.074046 (Hartree/Particle)
 Thermal correction to Energy=                    0.077932
 Thermal correction to Enthalpy=                  0.078876
 Thermal correction to Gibbs Free Energy=         0.049302
 Sum of electronic and zero-point Energies=           -117.699180
 Sum of electronic and thermal Energies=              -117.695294
 Sum of electronic and thermal Enthalpies=            -117.694350
 Sum of electronic and thermal Free Energies=         -117.723924

                     E (Thermal)             CV                S
                      KCal/Mol        Cal/Mol-Kelvin    Cal/Mol-Kelvin
 Total                   48.903             13.363             62.244
 Electronic               0.000              0.000              0.000
 Translational            0.889              2.981             37.135
 Rotational               0.889              2.981             22.151
 Vibrational             47.126              7.402              2.958
 Vibration     1          0.787              1.416              0.875
 Vibration     2          0.932              1.085              0.494
 Vibration     3          0.972              1.005              0.428

 Optimization completed.
    -- Stationary point found.
 Normal termination of Gaussian 16 at Fri Jul 17 17:29:26 2020.
