 Gaussian 16, Revision B.01,
 Gaussian 16:  ES64L-G16RevB.01 20-Dec-2017

 --------------------------------------------------------------
 # B3LYP/6-31G** OPT=(TS, CALCALL, NOEIGEN, maxcycles=100) Freq
 --------------------------------------------------------------

 ---------
 pp_2_0 TS
 ---------
 Symbolic Z-matrix:
 Charge =  0 Multiplicity = 1

 SCF Done:  E(RB3LYP) =  -117.680487266     A.U. after   20 cycles
 SCF Done:  E(RB3LYP) =  -117.699096165     A.U. after   17 cycles
 SCF Done:  E(RB3LYP) =  -117.705515145     A.U. after   17 cycles
 SCF Done:  E(RB3LYP) =  -117.707658910     A.U. after   15 cycles
 SCF Done:  E(RB3LYP) =  -117.707962060     A.U. after   13 cycles
 SCF Done:  E(RB3LYP) =  -117.707974898     A.U. after   14 cycles
 SCF Done:  E(RB3LYP) =  -117.707974953     A.U. after    9 cycles
 Optimization completed.
    -- Stationary point found.
 ******    1 imaginary frequencies (negative Signs) ******
    1 imaginary frequencies ignored.
 Normal termination of Gaussian 16 at Fri Jul 17 17:27:31 2020.

 ----------------------------------------------------------------------
 #N Geom=AllCheck Guess=TCheck SCRF=Check GenChk RB3LYP/6-31G(d,p) Freq
 ----------------------------------------------------------------------

 Structure from the checkpoint file:  "/scratch/brown/zhao922/pyGSM/new-benchmarking/R1-3/TS-folder/Gau-213575.chk"
 ---------
 pp_2_0 TS
 ---------
 Charge =  0 Multiplicity = 1

                         Standard orientation:
 ---------------------------------------------------------------------
 Center     Atomic      Atomic             Coordinates (Angstroms)
 Number     Number       Type             X           Y           Z
 ---------------------------------------------------------------------
      1          6           0       -1.112489   -0.350770   -0.090129
      2          6           0       -0.032463    0.487739    0.019453
      3          6           0        1.223012   -0.220879   -0.032950
      4          1           0       -0.090318    1.455776   -0.477537
      5          1           0       -0.776490    1.238144    1.247764
      6          1           0       -2.071707   -0.028705   -0.496580
      7          1           0       -1.030130   -1.379746    0.248440
      8          1           0        2.044758    0.211802   -0.590927
      9          1           0        1.455533   -0.993809    0.690592
 ---------------------------------------------------------------------

 SCF Done:  E(RB3LYP) =  -117.707974953     A.U. after    3 cycles

 The electronic state is 1-A.
 Alpha  occ. eigenvalues --  -10.26898 -10.23081 -10.15862  -0.82193  -0.67202
 Alpha  occ. eigenvalues --   -0.57865  -0.50227  -0.44449  -0.39443  -0.38125
 Alpha  occ. eigenvalues --   -0.33882  -0.14578
 Alpha virt. eigenvalues --   -0.10695   0.04148   0.09304   0.11381   0.15641
 Alpha virt. eigenvalues --    0.17224   0.21920   0.28152   0.31379   0.47573
 Alpha virt. eigenvalues --    0.51295   0.56559   0.58096   0.60401   0.62841

 Mulliken charges:
               1
     1  C   -0.054789
     2  C   -0.009612
     3  C   -0.362011
     4  H    0.147877
     5  H   -0.216106
     6  H    0.144788
     7  H    0.158390
     8  H    0.096456
     9  H    0.095007
 Sum of Mulliken charges =  -0.00000

 Dipole moment (field-independent basis, Debye):
    X=             -1.6242    Y=             -1.0680    Z=             -1.4082  Tot=              2.4004
 Quadrupole moment (field-independent basis, Debye-Ang):
   XX=            -18.9318   YY=            -20.8653   ZZ=            -23.2244
   XY=              2.2282   XZ=              1.7120   YZ=             -3.6170

  Exact polarizability:  68.537 -11.370  41.544 -11.097   7.601  30.826
 Approx polarizability: 246.035 -92.612 104.646 -87.735  53.071  79.178

 ******    1 imaginary frequencies (negative Signs) ******

                      1                      2                      3
                      A                      A                      A
 Frequencies --  -1930.7285               277.0713               448.2684
 Red. masses --      1.5942                 1.4281                 1.0953
 Frc consts  --      3.5013                 0.0646                 0.1297
 IR Inten    --    253.6460                33.1680               263.0888

                      4                      5                      6
                      A                      A                      A
 Frequencies --    566.5764               594.0216               677.5949
 Red. masses --      1.3497                 1.1342                 1.3118
 Frc consts  --      0.2553                 0.2358                 0.3549
 IR Inten    --    113.4859               140.6519                35.7448

                      7                      8                      9
                      A                      A                      A
 Frequencies --    852.5988               923.0627              1019.4480
 Red. masses --      1.0720                 1.1378                 1.5007
 Frc consts  --      0.4591                 0.5712                 0.9189
 IR Inten    --    285.7598                 6.6744                15.3540

                     10                     11                     12
                      A                      A                      A
 Frequencies --   1050.0951              1113.2394              1205.8918
 Red. masses --      1.3158                 1.3034                 1.6209
 Frc consts  --      0.8549                 0.9517                 1.3888
 IR Inten    --     47.7147               107.8735                17.6424

                     13                     14                     15
                      A                      A                      A
 Frequencies --   1272.8161              1420.4758              1474.8557
 Red. masses --      1.3234                 1.2885                 1.2549
 Frc consts  --      1.2632                 1.5318                 1.6082
 IR Inten    --     48.8253                34.3944                12.4096

                     16                     17                     18
                      A                      A                      A
 Frequencies --   1611.9495              3133.9986              3150.6948
 Red. masses --      2.9299                 1.0599                 1.0867
 Frc consts  --      4.4854                 6.1336                 6.3557
 IR Inten    --     21.9308                 3.2123                10.9476

                     19                     20                     21
                      A                      A                      A
 Frequencies --   3170.2360              3251.8572              3270.2994
 Red. masses --      1.0516                 1.1154                 1.1176
 Frc consts  --      6.2268                 6.9494                 7.0422
 IR Inten    --      7.3454                 3.5770                10.0377

 - Thermochemistry -
 -------------------
 Temperature   298.150 Kelvin.  Pressure   1.00000 Atm.
 Atom     1 has atomic number  6 and mass  12.00000

 Molecular mass:    42.04695 amu.
 Principal axes and moments of inertia in atomic units:
                           1         2         3
     Eigenvalues --    52.08378 172.19340 202.59201
           X            0.99979  -0.01896  -0.00806
           Y            0.01869   0.99930  -0.03235
           Z            0.00867   0.03219   0.99944
 This molecule is an asymmetric top.
 Rotational symmetry number  1.
 Rotational temperatures (Kelvin)      1.66297     0.50300     0.42753
 Rotational constants (GHZ):          34.65074    10.48090     8.90825
    1 imaginary frequencies ignored.
 Zero-point vibrational energy     182341.1 (Joules/Mol)
                                   43.58057 (Kcal/Mol)
 Warning -- explicit consideration of   4 degrees of freedom as
           vibrations may cause significant error
 Vibrational temperatures:    398.64   644.96   815.18   854.66   974.91
          (Kelvin)           1226.70  1328.08  1466.76  1510.85  1601.70
                             1735.01  1831.30  2043.75  2121.99  2319.24
                             4509.12  4533.15  4561.26  4678.70  4705.23

 Zero-point correction=                           0.069450 (Hartree/Particle)
 Thermal correction to Energy=                    0.073709
 Thermal correction to Enthalpy=                  0.074653
 Thermal correction to Gibbs Free Energy=         0.044462
 Sum of electronic and zero-point Energies=           -117.638525
 Sum of electronic and thermal Energies=              -117.634266
 Sum of electronic and thermal Enthalpies=            -117.633322
 Sum of electronic and thermal Free Energies=         -117.663513

                     E (Thermal)             CV                S
                      KCal/Mol        Cal/Mol-Kelvin    Cal/Mol-Kelvin
 Total                   46.253             14.645             63.542
 Electronic               0.000              0.000              0.000
 Translational            0.889              2.981             37.135
 Rotational               0.889              2.981             22.123
 Vibrational             44.475              8.684              4.283
 Vibration     1          0.678              1.716              1.552
 Vibration     2          0.807              1.365              0.801
 Vibration     3          0.922              1.104              0.511
 Vibration     4          0.952              1.045              0.460

 Optimization completed.
    -- Stationary point found.
 Normal termination of Gaussian 16 at Fri Jul 17 17:27:37 2020.
