 Gaussian 16, Revision B.01,
 Gaussian 16:  ES64L-G16RevB.01 20-Dec-2017

 --------------------------------------------------------------
 # B3LYP/6-31G** OPT=(TS, CALCALL, NOEIGEN, maxcycles=100) Freq
 --------------------------------------------------------------

 ---------
 pp_2_1 TS
 ---------
 Symbolic Z-matrix:
 Charge =  0 Multiplicity = 1

 SCF Done:  E(RB3LYP) =  -117.735055375     A.U. after   16 cycles
 SCF Done:  E(RB3LYP) =  -117.733998281     A.U. after   15 cycles
 SCF Done:  E(RB3LYP) =  -117.752889368     A.U. after   15 cycles
 SCF Done:  E(RB3LYP) =  -117.759492340     A.U. after   13 cycles
 SCF Done:  E(RB3LYP) =  -117.768108028     A.U. after   14 cycles
 SCF Done:  E(RB3LYP) =  -117.772898353     A.U. after   13 cycles
 SCF Done:  E(RB3LYP) =  -117.773221872     A.U. after   12 cycles
 SCF Done:  E(RB3LYP) =  -117.773226205     A.U. after    9 cycles
 Optimization completed.
    -- Stationary point found.
 ******    1 imaginary frequencies (negative Signs) ******
    1 imaginary frequencies ignored.
 Normal termination of Gaussian 16 at Fri Jul 17 17:28:23 2020.

 ----------------------------------------------------------------------
 #N Geom=AllCheck Guess=TCheck SCRF=Check GenChk RB3LYP/6-31G(d,p) Freq
 ----------------------------------------------------------------------

 Structure from the checkpoint file:  "/scratch/brown/zhao922/pyGSM/new-benchmarking/R1-3/TS-folder/Gau-216867.chk"
 ---------
 pp_2_1 TS
 ---------
 Charge =  0 Multiplicity = 1

                         Standard orientation:
 ---------------------------------------------------------------------
 Center     Atomic      Atomic             Coordinates (Angstroms)
 Number     Number       Type             X           Y           Z
 ---------------------------------------------------------------------
      1          6           0        1.267312   -0.232432   -0.140428
      2          6           0       -0.022559    0.502934   -0.007177
      3          6           0       -1.250884   -0.237632    0.030161
      4          1           0       -0.063469    1.491431   -0.481287
      5          1           0        2.104070    0.087687    0.479032
      6          1           0        0.151456    0.688409    1.089791
      7          1           0        1.228127   -1.299852   -0.351449
      8          1           0       -1.270316   -1.195205    0.539756
      9          1           0       -2.113080    0.030310   -0.571182
 ---------------------------------------------------------------------

 SCF Done:  E(RB3LYP) =  -117.773226205     A.U. after    1 cycles

 The electronic state is 1-A.
 Alpha  occ. eigenvalues --  -10.20577 -10.18753 -10.18375  -0.79588  -0.65517
 Alpha  occ. eigenvalues --   -0.56922  -0.46239  -0.44069  -0.40068  -0.36551
 Alpha  occ. eigenvalues --   -0.34986  -0.16345
 Alpha virt. eigenvalues --   -0.07839   0.10079   0.13046   0.14661   0.15532
 Alpha virt. eigenvalues --    0.17968   0.21744   0.26758   0.32337   0.49578
 Alpha virt. eigenvalues --    0.53138   0.55593   0.59951   0.61120   0.62221

 Mulliken charges:
               1
     1  C   -0.273782
     2  C   -0.189484
     3  C   -0.259304
     4  H    0.125597
     5  H    0.096557
     6  H    0.183206
     7  H    0.106494
     8  H    0.104331
     9  H    0.106385
 Sum of Mulliken charges =   0.00000

 Dipole moment (field-independent basis, Debye):
    X=             -0.1874    Y=              0.3364    Z=              0.7445  Tot=              0.8381
 Quadrupole moment (field-independent basis, Debye-Ang):
   XX=            -21.1161   YY=            -19.0979   ZZ=            -20.7283
   XY=              0.0087   XZ=              1.8063   YZ=             -0.0009

  Exact polarizability:  72.364   1.116  30.446  -1.855  -0.385  23.930
 Approx polarizability: 257.582   4.464  40.686 -28.295  -0.078  38.069

 ******    1 imaginary frequencies (negative Signs) ******

                      1                      2                      3
                      A                      A                      A
 Frequencies --   -468.5358               424.9392               575.2482
 Red. masses --      1.1746                 1.4111                 1.3907
 Frc consts  --      0.1519                 0.1501                 0.2711
 IR Inten    --     18.0385                10.4242                17.0627

                      4                      5                      6
                      A                      A                      A
 Frequencies --    612.8751               671.0981               725.8518
 Red. masses --      1.1671                 1.3143                 1.5821
 Frc consts  --      0.2583                 0.3488                 0.4911
 IR Inten    --     38.2257                78.1053               128.1208

                      7                      8                      9
                      A                      A                      A
 Frequencies --    826.0569               967.5528              1016.8500
 Red. masses --      1.2254                 1.5599                 1.3608
 Frc consts  --      0.4927                 0.8604                 0.8290
 IR Inten    --     57.7717                 8.8593                10.4451

                     10                     11                     12
                      A                      A                      A
 Frequencies --   1152.9159              1201.3903              1320.2871
 Red. masses --      1.6996                 1.5228                 1.1760
 Frc consts  --      1.3311                 1.2950                 1.2078
 IR Inten    --     22.4187                26.2466                20.3875

                     13                     14                     15
                      A                      A                      A
 Frequencies --   1366.6531              1492.3333              1510.5708
 Red. masses --      1.5471                 1.1621                 1.3657
 Frc consts  --      1.7025                 1.5249                 1.8360
 IR Inten    --      5.5591                 3.5289                 3.5722

                     16                     17                     18
                      A                      A                      A
 Frequencies --   2820.5546              3053.5363              3115.9576
 Red. masses --      1.0667                 1.0862                 1.0522
 Frc consts  --      4.9998                 5.9674                 6.0191
 IR Inten    --      7.7943                22.4420                 7.5172

                     19                     20                     21
                      A                      A                      A
 Frequencies --   3163.0380              3219.8222              3264.7739
 Red. masses --      1.0530                 1.1154                 1.1178
 Frc consts  --      6.2073                 6.8132                 7.0200
 IR Inten    --      2.8132                26.8011                12.7709

 - Thermochemistry -
 -------------------
 Temperature   298.150 Kelvin.  Pressure   1.00000 Atm.
 Atom     1 has atomic number  6 and mass  12.00000

 Molecular mass:    42.04695 amu.
 Principal axes and moments of inertia in atomic units:
                           1         2         3
     Eigenvalues --    45.85717 188.67309 215.90226
           X            0.99964   0.00184   0.02695
           Y           -0.00137   0.99985  -0.01731
           Z           -0.02697   0.01727   0.99949
 This molecule is an asymmetric top.
 Rotational symmetry number  1.
 Rotational temperatures (Kelvin)      1.88878     0.45907     0.40117
 Rotational constants (GHZ):          39.35570     9.56544     8.35907
    1 imaginary frequencies ignored.
 Zero-point vibrational energy     194407.0 (Joules/Mol)
                                   46.46438 (Kcal/Mol)
 Warning -- explicit consideration of   3 degrees of freedom as
           vibrations may cause significant error
 Vibrational temperatures:    611.39   827.65   881.79   965.56  1044.34
          (Kelvin)           1188.51  1392.09  1463.02  1658.79  1728.53
                             1899.60  1966.31  2147.13  2173.37  4058.15
                             4393.36  4483.17  4550.91  4632.61  4697.28

 Zero-point correction=                           0.074046 (Hartree/Particle)
 Thermal correction to Energy=                    0.077932
 Thermal correction to Enthalpy=                  0.078876
 Thermal correction to Gibbs Free Energy=         0.049301
 Sum of electronic and zero-point Energies=           -117.699181
 Sum of electronic and thermal Energies=              -117.695294
 Sum of electronic and thermal Enthalpies=            -117.694350
 Sum of electronic and thermal Free Energies=         -117.723925

                     E (Thermal)             CV                S
                      KCal/Mol        Cal/Mol-Kelvin    Cal/Mol-Kelvin
 Total                   48.903             13.364             62.245
 Electronic               0.000              0.000              0.000
 Translational            0.889              2.981             37.135
 Rotational               0.889              2.981             22.151
 Vibrational             47.125              7.402              2.958
 Vibration     1          0.787              1.416              0.875
 Vibration     2          0.932              1.085              0.494
 Vibration     3          0.972              1.005              0.428

 Optimization completed.
    -- Stationary point found.
 Normal termination of Gaussian 16 at Fri Jul 17 17:28:29 2020.
