 Gaussian 16, Revision B.01,
 Gaussian 16:  ES64L-G16RevB.01 20-Dec-2017

 --------------------------------------------------------------
 # B3LYP/6-31G** OPT=(TS, CALCALL, NOEIGEN, maxcycles=100) Freq
 --------------------------------------------------------------

 ---------
 pp_3_1 TS
 ---------
 Symbolic Z-matrix:
 Charge =  0 Multiplicity = 1

 SCF Done:  E(RB3LYP) =  -117.657468161     A.U. after   15 cycles
 SCF Done:  E(RB3LYP) =  -117.660880076     A.U. after   13 cycles
 SCF Done:  E(RB3LYP) =  -117.670781514     A.U. after   13 cycles
 SCF Done:  E(RB3LYP) =  -117.682920743     A.U. after   13 cycles
 SCF Done:  E(RB3LYP) =  -117.695778420     A.U. after   13 cycles
 SCF Done:  E(RB3LYP) =  -117.708218210     A.U. after   13 cycles
 SCF Done:  E(RB3LYP) =  -117.720005624     A.U. after   14 cycles
 SCF Done:  E(RB3LYP) =  -117.728947349     A.U. after   14 cycles
 SCF Done:  E(RB3LYP) =  -117.734000172     A.U. after   14 cycles
 SCF Done:  E(RB3LYP) =  -117.734824708     A.U. after   13 cycles
 SCF Done:  E(RB3LYP) =  -117.734849534     A.U. after   12 cycles
 Optimization completed.
    -- Stationary point found.
 ******    1 imaginary frequencies (negative Signs) ******
    1 imaginary frequencies ignored.
 Normal termination of Gaussian 16 at Fri Jul 17 17:32:05 2020.

 ----------------------------------------------------------------------
 #N Geom=AllCheck Guess=TCheck SCRF=Check GenChk RB3LYP/6-31G(d,p) Freq
 ----------------------------------------------------------------------

 Structure from the checkpoint file:  "/scratch/brown/zhao922/pyGSM/new-benchmarking/R1-3/TS-folder/Gau-114648.chk"
 ---------
 pp_3_1 TS
 ---------
 Charge =  0 Multiplicity = 1

                         Standard orientation:
 ---------------------------------------------------------------------
 Center     Atomic      Atomic             Coordinates (Angstroms)
 Number     Number       Type             X           Y           Z
 ---------------------------------------------------------------------
      1          6           0        1.184402   -0.344975   -0.029377
      2          6           0       -0.038161    0.276777   -0.120752
      3          6           0       -1.321230   -0.137358    0.021322
      4          1           0        0.244749    1.431754   -0.088975
      5          1           0        2.087897    0.233592   -0.175010
      6          1           0        1.158577    1.544340    0.762914
      7          1           0        1.279642   -1.429603    0.017844
      8          1           0       -1.579565   -0.966129    0.674489
      9          1           0       -2.141365    0.419380   -0.418423
 ---------------------------------------------------------------------

 SCF Done:  E(RB3LYP) =  -117.734849534     A.U. after    1 cycles

 The electronic state is 1-A.
 Alpha  occ. eigenvalues --  -10.22601 -10.21366 -10.18416  -0.80515  -0.68996
 Alpha  occ. eigenvalues --   -0.56038  -0.49244  -0.44677  -0.40508  -0.37776
 Alpha  occ. eigenvalues --   -0.29754  -0.20197
 Alpha virt. eigenvalues --   -0.09219   0.03655   0.11742   0.12872   0.15251
 Alpha virt. eigenvalues --    0.18547   0.21178   0.29448   0.35689   0.48504
 Alpha virt. eigenvalues --    0.49640   0.54193   0.59442   0.63341   0.63836

 Mulliken charges:
               1
     1  C   -0.196566
     2  C    0.027032
     3  C   -0.285515
     4  H    0.094359
     5  H    0.141433
     6  H   -0.122338
     7  H    0.120503
     8  H    0.111558
     9  H    0.109533
 Sum of Mulliken charges =   0.00000

 Dipole moment (field-independent basis, Debye):
    X=              0.1449    Y=             -0.9153    Z=             -0.4147  Tot=              1.0152
 Quadrupole moment (field-independent basis, Debye-Ang):
   XX=            -18.8296   YY=            -20.8202   ZZ=            -22.5545
   XY=             -1.5552   XZ=             -0.8837   YZ=             -1.7985

  Exact polarizability:  63.712  11.362  48.074   6.811   5.026  21.005
 Approx polarizability: 138.253  55.908 116.985  28.807  26.178  36.939

 ******    1 imaginary frequencies (negative Signs) ******

                      1                      2                      3
                      A                      A                      A
 Frequencies --  -1377.3317               341.8637               469.9014
 Red. masses --      1.0554                 1.8158                 1.7875
 Frc consts  --      1.1796                 0.1250                 0.2325
 IR Inten    --     39.3128               120.2458                65.6607

                      4                      5                      6
                      A                      A                      A
 Frequencies --    581.5791               718.4643               804.9242
 Red. masses --      1.1200                 1.0898                 1.3584
 Frc consts  --      0.2232                 0.3315                 0.5186
 IR Inten    --     67.8380                11.2271                70.8290

                      7                      8                      9
                      A                      A                      A
 Frequencies --    845.0368               927.3711               976.7449
 Red. masses --      1.0888                 1.2532                 1.2254
 Frc consts  --      0.4581                 0.6350                 0.6888
 IR Inten    --    178.2537               142.0063                54.1901

                     10                     11                     12
                      A                      A                      A
 Frequencies --   1026.4845              1061.1881              1203.6746
 Red. masses --      1.1604                 1.7166                 1.1945
 Frc consts  --      0.7204                 1.1390                 1.0197
 IR Inten    --     11.0392                 0.5938                49.1755

                     13                     14                     15
                      A                      A                      A
 Frequencies --   1261.7085              1450.9143              1526.8108
 Red. masses --      1.7670                 1.1169                 1.3566
 Frc consts  --      1.6573                 1.3853                 1.8632
 IR Inten    --     37.0311                 2.8130                 1.6927

                     16                     17                     18
                      A                      A                      A
 Frequencies --   1699.2668              2267.9840              3144.0329
 Red. masses --      6.3620                 1.0544                 1.0622
 Frc consts  --     10.8234                 3.1954                 6.1864
 IR Inten    --     14.7299                 3.2070                 6.8259

                     19                     20                     21
                      A                      A                      A
 Frequencies --   3157.9546              3246.9872              3263.9641
 Red. masses --      1.0568                 1.1152                 1.1106
 Frc consts  --      6.2097                 6.9276                 6.9708
 IR Inten    --      1.5250                 7.8518                 2.8313

 - Thermochemistry -
 -------------------
 Temperature   298.150 Kelvin.  Pressure   1.00000 Atm.
 Atom     1 has atomic number  6 and mass  12.00000

 Molecular mass:    42.04695 amu.
 Principal axes and moments of inertia in atomic units:
                           1         2         3
     Eigenvalues --    41.51690 192.29755 223.59547
           X            0.99939   0.03405   0.00780
           Y           -0.03421   0.99918   0.02152
           Z           -0.00706  -0.02178   0.99974
 This molecule is an asymmetric top.
 Rotational symmetry number  1.
 Rotational temperatures (Kelvin)      2.08623     0.45042     0.38737
 Rotational constants (GHZ):          43.47003     9.38515     8.07146
    1 imaginary frequencies ignored.
 Zero-point vibrational energy     179301.4 (Joules/Mol)
                                   42.85407 (Kcal/Mol)
 Warning -- explicit consideration of   3 degrees of freedom as
           vibrations may cause significant error
 Vibrational temperatures:    491.87   676.08   836.76  1033.71  1158.11
          (Kelvin)           1215.82  1334.28  1405.32  1476.88  1526.81
                             1731.82  1815.32  2087.54  2196.74  2444.87
                             3263.12  4523.56  4543.59  4671.69  4696.12

 Zero-point correction=                           0.068292 (Hartree/Particle)
 Thermal correction to Energy=                    0.072355
 Thermal correction to Enthalpy=                  0.073300
 Thermal correction to Gibbs Free Energy=         0.043454
 Sum of electronic and zero-point Energies=           -117.666557
 Sum of electronic and thermal Energies=              -117.662494
 Sum of electronic and thermal Enthalpies=            -117.661550
 Sum of electronic and thermal Free Energies=         -117.691395

                     E (Thermal)             CV                S
                      KCal/Mol        Cal/Mol-Kelvin    Cal/Mol-Kelvin
 Total                   45.404             14.057             62.815
 Electronic               0.000              0.000              0.000
 Translational            0.889              2.981             37.135
 Rotational               0.889              2.981             22.106
 Vibrational             43.626              8.096              3.574
 Vibration     1          0.721              1.592              1.203
 Vibration     2          0.827              1.317              0.738
 Vibration     3          0.938              1.071              0.482

 Optimization completed.
    -- Stationary point found.
 Normal termination of Gaussian 16 at Fri Jul 17 17:32:10 2020.
