 Gaussian 16, Revision B.01,
 Gaussian 16:  ES64L-G16RevB.01 20-Dec-2017

 --------------------------------------------------------------
 # B3LYP/6-31G** OPT=(TS, CALCALL, NOEIGEN, maxcycles=100) Freq
 --------------------------------------------------------------

 ---------
 pp_3_2 TS
 ---------
 Symbolic Z-matrix:
 Charge =  0 Multiplicity = 1

 SCF Done:  E(RB3LYP) =  -117.645476535     A.U. after   16 cycles
 SCF Done:  E(RB3LYP) =  -117.651824393     A.U. after   13 cycles
 SCF Done:  E(RB3LYP) =  -117.661843500     A.U. after   13 cycles
 SCF Done:  E(RB3LYP) =  -117.673572382     A.U. after   13 cycles
 SCF Done:  E(RB3LYP) =  -117.686251438     A.U. after   13 cycles
 SCF Done:  E(RB3LYP) =  -117.699354486     A.U. after   13 cycles
 SCF Done:  E(RB3LYP) =  -117.711435673     A.U. after   13 cycles
 SCF Done:  E(RB3LYP) =  -117.722698572     A.U. after   14 cycles
 SCF Done:  E(RB3LYP) =  -117.730056104     A.U. after   14 cycles
 SCF Done:  E(RB3LYP) =  -117.733832121     A.U. after   14 cycles
 SCF Done:  E(RB3LYP) =  -117.734805421     A.U. after   13 cycles
 SCF Done:  E(RB3LYP) =  -117.734849422     A.U. after   12 cycles
 SCF Done:  E(RB3LYP) =  -117.734849594     A.U. after    8 cycles
 Optimization completed.
    -- Stationary point found.
 ******    1 imaginary frequencies (negative Signs) ******
    1 imaginary frequencies ignored.
 Normal termination of Gaussian 16 at Fri Jul 17 17:33:22 2020.

 ----------------------------------------------------------------------
 #N Geom=AllCheck Guess=TCheck SCRF=Check GenChk RB3LYP/6-31G(d,p) Freq
 ----------------------------------------------------------------------

 Structure from the checkpoint file:  "/scratch/brown/zhao922/pyGSM/new-benchmarking/R1-3/TS-folder/Gau-119427.chk"
 ---------
 pp_3_2 TS
 ---------
 Charge =  0 Multiplicity = 1

                         Standard orientation:
 ---------------------------------------------------------------------
 Center     Atomic      Atomic             Coordinates (Angstroms)
 Number     Number       Type             X           Y           Z
 ---------------------------------------------------------------------
      1          6           0       -1.184651   -0.344717   -0.029269
      2          6           0        0.038275    0.276565   -0.120848
      3          6           0        1.321319   -0.137402    0.021309
      4          1           0       -0.244629    1.431968   -0.088525
      5          1           0       -2.087982    0.234028   -0.175326
      6          1           0       -1.280313   -1.429328    0.017746
      7          1           0       -1.157823    1.543552    0.763035
      8          1           0        1.579661   -0.966316    0.674294
      9          1           0        2.141425    0.419419   -0.418380
 ---------------------------------------------------------------------

 SCF Done:  E(RB3LYP) =  -117.734849594     A.U. after    3 cycles

 The electronic state is 1-A.
 Alpha  occ. eigenvalues --  -10.22601 -10.21369 -10.18409  -0.80512  -0.68995
 Alpha  occ. eigenvalues --   -0.56035  -0.49242  -0.44674  -0.40507  -0.37775
 Alpha  occ. eigenvalues --   -0.29750  -0.20198
 Alpha virt. eigenvalues --   -0.09211   0.03656   0.11738   0.12871   0.15252
 Alpha virt. eigenvalues --    0.18546   0.21176   0.29446   0.35693   0.48495
 Alpha virt. eigenvalues --    0.49643   0.54198   0.59444   0.63342   0.63836

 Mulliken charges:
               1
     1  C   -0.196724
     2  C    0.027081
     3  C   -0.285595
     4  H    0.094243
     5  H    0.141471
     6  H    0.120498
     7  H   -0.122007
     8  H    0.111529
     9  H    0.109503
 Sum of Mulliken charges =  -0.00000

 Dipole moment (field-independent basis, Debye):
    X=             -0.1479    Y=             -0.9124    Z=             -0.4140  Tot=              1.0128
 Quadrupole moment (field-independent basis, Debye-Ang):
   XX=            -18.8279   YY=            -20.8161   ZZ=            -22.5553
   XY=              1.5513   XZ=              0.8829   YZ=             -1.7964

  Exact polarizability:  63.694 -11.340  48.053  -6.805   5.020  21.005
 Approx polarizability: 138.077 -55.728 116.812 -28.746  26.111  36.920

 ******    1 imaginary frequencies (negative Signs) ******

                      1                      2                      3
                      A                      A                      A
 Frequencies --  -1379.3787               341.6384               470.0564
 Red. masses --      1.0555                 1.8163                 1.7883
 Frc consts  --      1.1832                 0.1249                 0.2328
 IR Inten    --     39.2867               120.3590                65.6796

                      4                      5                      6
                      A                      A                      A
 Frequencies --    581.7785               718.5021               804.7976
 Red. masses --      1.1200                 1.0897                 1.3585
 Frc consts  --      0.2233                 0.3314                 0.5184
 IR Inten    --     67.5976                11.0904                70.5934

                      7                      8                      9
                      A                      A                      A
 Frequencies --    845.3129               927.4853               976.7776
 Red. masses --      1.0889                 1.2531                 1.2257
 Frc consts  --      0.4584                 0.6351                 0.6890
 IR Inten    --    178.8194               141.9950                54.1538

                     10                     11                     12
                      A                      A                      A
 Frequencies --   1026.7188              1061.1858              1203.7690
 Red. masses --      1.1604                 1.7164                 1.1953
 Frc consts  --      0.7207                 1.1388                 1.0205
 IR Inten    --     11.0747                 0.5796                49.3750

                     13                     14                     15
                      A                      A                      A
 Frequencies --   1261.5598              1450.9279              1526.8003
 Red. masses --      1.7650                 1.1169                 1.3559
 Frc consts  --      1.6551                 1.3853                 1.8622
 IR Inten    --     37.0402                 2.7926                 1.6877

                     16                     17                     18
                      A                      A                      A
 Frequencies --   1699.3260              2265.6358              3143.9391
 Red. masses --      6.3621                 1.0543                 1.0622
 Frc consts  --     10.8244                 3.1885                 6.1861
 IR Inten    --     14.8874                 3.1379                 6.8269

                     19                     20                     21
                      A                      A                      A
 Frequencies --   3157.9350              3246.9730              3263.8127
 Red. masses --      1.0568                 1.1152                 1.1106
 Frc consts  --      6.2096                 6.9275                 6.9701
 IR Inten    --      1.5234                 7.8527                 2.8313

 - Thermochemistry -
 -------------------
 Temperature   298.150 Kelvin.  Pressure   1.00000 Atm.
 Atom     1 has atomic number  6 and mass  12.00000

 Molecular mass:    42.04695 amu.
 Principal axes and moments of inertia in atomic units:
                           1         2         3
     Eigenvalues --    41.49844 192.33617 223.61485
           X            0.99939  -0.03400  -0.00778
           Y            0.03416   0.99918   0.02156
           Z            0.00704  -0.02181   0.99974
 This molecule is an asymmetric top.
 Rotational symmetry number  1.
 Rotational temperatures (Kelvin)      2.08716     0.45033     0.38734
 Rotational constants (GHZ):          43.48937     9.38326     8.07076
    1 imaginary frequencies ignored.
 Zero-point vibrational energy     179289.9 (Joules/Mol)
                                   42.85132 (Kcal/Mol)
 Warning -- explicit consideration of   3 degrees of freedom as
           vibrations may cause significant error
 Vibrational temperatures:    491.54   676.31   837.05  1033.76  1157.92
          (Kelvin)           1216.22  1334.44  1405.37  1477.22  1526.81
                             1731.96  1815.10  2087.56  2196.73  2444.95
                             3259.74  4523.43  4543.56  4671.67  4695.90

 Zero-point correction=                           0.068288 (Hartree/Particle)
 Thermal correction to Energy=                    0.072351
 Thermal correction to Enthalpy=                  0.073295
 Thermal correction to Gibbs Free Energy=         0.043450
 Sum of electronic and zero-point Energies=           -117.666562
 Sum of electronic and thermal Energies=              -117.662499
 Sum of electronic and thermal Enthalpies=            -117.661555
 Sum of electronic and thermal Free Energies=         -117.691400

                     E (Thermal)             CV                S
                      KCal/Mol        Cal/Mol-Kelvin    Cal/Mol-Kelvin
 Total                   45.401             14.056             62.815
 Electronic               0.000              0.000              0.000
 Translational            0.889              2.981             37.135
 Rotational               0.889              2.981             22.106
 Vibrational             43.623              8.095              3.574
 Vibration     1          0.721              1.592              1.204
 Vibration     2          0.827              1.316              0.737
 Vibration     3          0.939              1.071              0.482

 Optimization completed.
    -- Stationary point found.
 Normal termination of Gaussian 16 at Fri Jul 17 17:33:28 2020.
