   * xtb version 6.4.0 (d4b70c2) compiled by 'ehlert@majestix' on 2021-02-01
          program call               : xtb -c 0 -u 0 -a 1.0 --iterations 100 --opt normal --namespace FWGWZODPTLNGHT-SMLDIACYSA-N /home/zhao922/bin/Github/YARP/version2.0/CONF_GEN/SAAA//opt-folder/FWGWZODPTLNGHT-SMLDIACYSA-N.xyz
          number of atoms            :                    47
          number of electrons        :                   116
          charge                     :                     0
          spin                       :                   0.0

   ID    Z sym.   atoms
    1    6 C      1-3, 6, 9, 13, 15, 18-22, 27, 28, 32, 37-39
    2    1 H      4, 5, 7, 8, 10-12, 14, 16, 17, 23-25, 29, 30, 33-35, 40-47
    3    8 O      26, 36
    4   16 S      31

          :  Hamiltonian                  GFN2-xTB          :
 * total energy  :   -63.0851882 Eh     change       -0.4189289E-09 Eh
 * total energy  :   -63.0985226 Eh     change       -0.1333446E-01 Eh
 * total energy  :   -63.1016234 Eh     change       -0.3100810E-02 Eh
 * total energy  :   -63.1028454 Eh     change       -0.1221968E-02 Eh
 * total energy  :   -63.1038736 Eh     change       -0.1028222E-02 Eh
 * total energy  :   -63.1045153 Eh     change       -0.6416341E-03 Eh
 * total energy  :   -63.1049630 Eh     change       -0.4477762E-03 Eh
 * total energy  :   -63.1052914 Eh     change       -0.3283919E-03 Eh
 * total energy  :   -63.1055446 Eh     change       -0.2532038E-03 Eh
 * total energy  :   -63.1057679 Eh     change       -0.2232273E-03 Eh
 * total energy  :   -63.1317603 Eh     change       -0.1352899E-04 Eh
 * total energy  :   -63.1317780 Eh     change       -0.1767414E-04 Eh
 * total energy  :   -63.1317885 Eh     change       -0.1057159E-04 Eh
 * total energy  :   -63.1317971 Eh     change       -0.8580417E-05 Eh
 * total energy  :   -63.1318027 Eh     change       -0.5585366E-05 Eh
 * total energy  :   -63.1318063 Eh     change       -0.3600994E-05 Eh
 * total energy  :   -63.1318073 Eh     change       -0.1038439E-05 Eh
 * total energy  :   -63.1318109 Eh     change       -0.3530662E-05 Eh
 * total energy  :   -63.1318129 Eh     change       -0.2006789E-05 Eh
   *** GEOMETRY OPTIMIZATION CONVERGED AFTER 94 ITERATIONS ***

 final structure:
================
47
 xtb: 6.4.0 (d4b70c2)
C         5.19701238341361   -5.53732562919110   -0.00994434765702
C         4.46888844156385   -6.06837000941036    1.23081626370422
C         4.45382522012978   -5.07503637471338    2.40164201712170
H         4.94051745861063   -6.99880000877253    1.55790865183946
H         3.43694687356574   -6.28950097474129    0.96548917198365
C         3.78766478847776   -3.78441292467212    2.04215999822712
H         5.47497963878022   -4.87277610051284    2.72594601244368
H         3.92615673732101   -5.54207112337499    3.23837694506106
C         6.71079998692783   -5.64773160266444    0.14487578750649
H         7.04769892223491   -5.11200991590899    1.02850459869526
H         7.21529790567052   -5.22326176597856   -0.71991949905124
H         7.00981411278810   -6.69031929176571    0.23935347125694
C         4.73302788820988   -6.29545493842930   -1.27112984101584
H         4.92668319111874   -4.48552074197551   -0.14802324917630
C         3.30124120946827   -5.97137560169794   -1.55144647609646
H         4.86650242371488   -7.36874777302741   -1.12250915866211
H         5.35195399512473   -5.97879305207337   -2.11210766815542
C         2.91505561720429   -4.92463433172229   -2.26343486397980
C         1.47617986370611   -4.46860441718290   -2.31359856341170
C         2.48265981383298   -3.59188903641250    1.82044570924900
C         2.06390382204658   -2.22190530795186    1.45125365346661
C         1.42427429892359   -4.64561797071487    1.93492121169301
H         0.55564034497292   -4.25317116950712    2.46286349477563
H         1.79727862365433   -5.50692783359335    2.48129962149530
H         1.10863042939412   -4.96240334684826    0.94278360765239
O         2.60495363304150   -1.23697425971555    1.91092163525281
C         0.91616566003226   -2.06237085181932    0.45858869315407
C         1.32980996421906   -2.47780175129984   -0.96135886349811
H         0.62234350387099   -1.01070302703083    0.45590455466368
H         0.06330491394836   -2.67449552840397    0.75204634871470
S         3.16081303654609   -2.12018526242894   -1.19889835843048
C         3.29907461284792   -0.33029733169433   -0.93357590661897
H         2.67987699182076    0.21015479555099   -1.64251459806776
H         4.34393073963920   -0.10079281136048   -1.11753964193121
H         3.04432599017271   -0.08338419902168    0.09266278536338
O         1.13251727549017   -3.85077146776765   -1.06459005459874
C         1.20897091357442   -3.59102923782277   -3.49422789852823
C         0.77362619481691   -2.34864053442809   -3.37421559786495
C         0.51881406997856   -1.73884753024535   -2.03066277085410
H         4.43757793553238   -2.92773555365220    1.92142210232144
H         0.58954854562078   -1.72885123477822   -4.23932087462150
H         0.76234265079736   -0.67621263374075   -2.03840183173296
H        -0.54360147692616   -1.83263747046042   -1.77739461691246
H         0.81789019534624   -5.34845875242589   -2.34946632454471
H         1.41606337987519   -4.03864504745366   -4.45392072692980
H         2.55384442307983   -6.59111350021482   -1.07305763187788
H         3.63973285582059   -4.28955556695137   -2.75041697142842

          :  Hamiltonian                  GFN2-xTB          :
         :: total energy             -63.131812886208 Eh    ::
         :: gradient norm              0.000370017890 Eh/a0 ::
         :: HOMO-LUMO gap              2.429434087388 eV    ::
         :: SCC energy               -63.999553554224 Eh    ::
         :: -> dispersion             -0.055297672231 Eh    ::
         :: repulsion energy           0.865802130182 Eh    ::

    * Orbital Energies and Occupations

         #    Occupation            Energy/Eh            Energy/eV
      -------------------------------------------------------------
         1        2.0000           -0.7117472             -19.3676
       ...           ...                  ...                  ...
        46        2.0000           -0.4443240             -12.0907
        47        2.0000           -0.4368230             -11.8866
        48        2.0000           -0.4350000             -11.8370
        49        2.0000           -0.4320916             -11.7578
        50        2.0000           -0.4254857             -11.5781
        51        2.0000           -0.4207294             -11.4486
        52        2.0000           -0.4132220             -11.2443
        53        2.0000           -0.4090183             -11.1300
        54        2.0000           -0.3962411             -10.7823
        55        2.0000           -0.3944149             -10.7326
        56        2.0000           -0.3884875             -10.5713
        57        2.0000           -0.3832381             -10.4284
        58        2.0000           -0.3529279              -9.6037 (HOMO)
        59                         -0.2636479              -7.1742 (LUMO)
        60                         -0.2179460              -5.9306
        61                         -0.2100791              -5.7165
        62                         -0.1858627              -5.0576
        63                         -0.1755869              -4.7780
        64                         -0.1446641              -3.9365
        65                         -0.0155837              -0.4241
        66                         -0.0064363              -0.1751
        67                          0.0138943               0.3781
        68                          0.0277591               0.7554
        69                          0.0542318               1.4757
       ...                                ...                  ...
       115                          0.6622397              18.0205
      -------------------------------------------------------------
                  HL-Gap            0.0892801 Eh            2.4294 eV

     #   Z          covCN         q      C6AA      α(0)
     1   6 C        3.853    -0.014    20.789     6.485
     2   6 C        3.805    -0.062    21.683     6.629
     3   6 C        3.803    -0.056    21.569     6.612
     4   1 H        0.924     0.033     2.550     2.497
     5   1 H        0.925     0.045     2.389     2.417
     6   6 C        2.906    -0.020    28.497     8.753
     7   1 H        0.924     0.040     2.454     2.450
     8   1 H        0.924     0.041     2.437     2.441
     9   6 C        3.755    -0.105    22.570     6.774
    10   1 H        0.925     0.039     2.465     2.455
    11   1 H        0.925     0.035     2.521     2.483
    12   1 H        0.925     0.033     2.542     2.493
    13   6 C        3.810    -0.065    21.730     6.636
    14   1 H        0.924     0.045     2.390     2.418
    15   6 C        2.894    -0.028    28.703     8.784
    16   1 H        0.924     0.038     2.482     2.464
    17   1 H        0.924     0.043     2.410     2.428
    18   6 C        2.894    -0.054    29.344     8.882
    19   6 C        3.750     0.117    18.731     6.172
    20   6 C        2.940    -0.012    28.315     8.727
    21   6 C        2.840     0.238    23.036     7.866
    22   6 C        3.756    -0.110    22.649     6.786
    23   1 H        0.925     0.038     2.473     2.459
    24   1 H        0.925     0.049     2.335     2.390
    25   1 H        0.925     0.070     2.082     2.257
    26   8 O        0.858    -0.380    21.290     6.186
    27   6 C        3.829    -0.087    22.131     6.694
    28   6 C        3.783     0.195    17.535     5.965
    29   1 H        0.924     0.053     2.288     2.365
    30   1 H        0.925     0.065     2.143     2.289
    31  16 S        2.005    -0.245   151.552    20.720
    32   6 C        3.745    -0.051    21.557     6.623
    33   1 H        0.925     0.043     2.413     2.429
    34   1 H        0.926     0.061     2.191     2.315
    35   1 H        0.925     0.074     2.041     2.234
    36   8 O        1.711    -0.314    19.236     5.922
    37   6 C        2.896    -0.050    29.228     8.864
    38   6 C        2.895    -0.031    28.783     8.796
    39   6 C        3.834    -0.060    21.625     6.616
    40   1 H        0.925     0.053     2.279     2.361
    41   1 H        0.926     0.035     2.517     2.481
    42   1 H        0.924     0.042     2.427     2.436
    43   1 H        0.924     0.048     2.344     2.395
    44   1 H        0.923     0.048     2.342     2.393
    45   1 H        0.926     0.039     2.464     2.455
    46   1 H        0.925     0.034     2.532     2.488
    47   1 H        0.926     0.052     2.294     2.368

Wiberg/Mayer (AO) data.
largest (>0.10) Wiberg bond orders for each atom

     #   Z sym  total        # sym  WBO       # sym  WBO       # sym  WBO
 ---------------------------------------------------------------------------
     1   6 C    3.992 --     9 C    1.010     2 C    0.996    13 C    0.969
                            14 H    0.964
     2   6 C    3.995 --     1 C    0.996     3 C    0.985     4 H    0.976
                             5 H    0.971
     3   6 C    3.997 --     6 C    1.030     2 C    0.985     7 H    0.976
                             8 H    0.960
     4   1 H    0.998 --     2 C    0.976
     5   1 H    0.998 --     2 C    0.971
     6   6 C    3.986 --    20 C    1.806     3 C    1.030    40 H    0.964
     7   1 H    0.998 --     3 C    0.976
     8   1 H    0.998 --     3 C    0.960
     9   6 C    3.996 --     1 C    1.010    12 H    0.986    11 H    0.986
                            10 H    0.983
    10   1 H    0.998 --     9 C    0.983
    11   1 H    0.999 --     9 C    0.986
    12   1 H    0.999 --     9 C    0.986
    13   6 C    3.995 --    15 C    1.027    16 H    0.974    17 H    0.971
                             1 C    0.969
    14   1 H    0.998 --     1 C    0.964
    15   6 C    3.987 --    18 C    1.924    13 C    1.027    46 H    0.963
    16   1 H    0.998 --    13 C    0.974
    17   1 H    0.998 --    13 C    0.971
    18   6 C    3.984 --    15 C    1.924    19 C    0.978    47 H    0.960
    19   6 C    3.944 --    37 C    1.012    18 C    0.978    44 H    0.942
                            36 O    0.934
    20   6 C    3.986 --     6 C    1.806    21 C    1.033    22 C    1.021
    21   6 C    3.922 --    26 O    1.804    20 C    1.033    27 C    0.969
    22   6 C    3.995 --    20 C    1.021    24 H    0.978    23 H    0.977
                            25 H    0.958
    23   1 H    0.998 --    22 C    0.977
    24   1 H    0.998 --    22 C    0.978
    25   1 H    0.995 --    22 C    0.958
    26   8 O    2.053 --    21 C    1.804
    27   6 C    3.993 --    29 H    0.973    21 C    0.969    28 C    0.968
                            30 H    0.955
    28   6 C    3.942 --    36 O    1.013    39 C    0.977    27 C    0.968
                            31 S    0.896
    29   1 H    0.997 --    27 C    0.973
    30   1 H    0.996 --    27 C    0.955
    31  16 S    2.108 --    32 C    1.010    28 C    0.896
    32   6 C    3.972 --    31 S    1.010    33 H    0.979    34 H    0.977
                            35 H    0.972
    33   1 H    0.998 --    32 C    0.979
    34   1 H    0.996 --    32 C    0.977
    35   1 H    0.994 --    32 C    0.972
    36   8 O    2.132 --    28 C    1.013    19 C    0.934
    37   6 C    3.990 --    38 C    1.924    19 C    1.012    45 H    0.965
    38   6 C    3.988 --    37 C    1.924    39 C    1.022    41 H    0.966
    39   6 C    3.998 --    38 C    1.022    28 C    0.977    42 H    0.964
                            43 H    0.950
    40   1 H    0.997 --     6 C    0.964
    41   1 H    0.998 --    38 C    0.966
    42   1 H    0.998 --    39 C    0.964
    43   1 H    0.998 --    39 C    0.950
    44   1 H    0.997 --    19 C    0.942
    45   1 H    0.998 --    37 C    0.965
    46   1 H    0.999 --    15 C    0.963
    47   1 H    0.997 --    18 C    0.960
 ---------------------------------------------------------------------------

molecular dipole:
                 x           y           z       tot (Debye)
 q only:       -0.264      -0.857      -0.557
   full:       -0.677      -0.609      -0.582       2.747

           -------------------------------------------------
          | TOTAL ENERGY              -63.131812886208 Eh   |
          | GRADIENT NORM               0.000370017890 Eh/α |
          | HOMO-LUMO GAP               2.429434087388 eV   |
           -------------------------------------------------

 * finished run on 2021/06/01 at 21:37:16.935
