   * xtb version 6.4.0 (d4b70c2) compiled by 'ehlert@majestix' on 2021-02-01
          program call               : xtb -c 0 -u 0 -a 1.0 --iterations 100 --opt normal --namespace WWKDVGUQNGJVIE-QZBKQMLXSA-N /home/zhao922/bin/Github/YARP/version2.0/CONF_GEN/SAAA//opt-folder/WWKDVGUQNGJVIE-QZBKQMLXSA-N.xyz
          number of atoms            :                    47
          number of electrons        :                   116
          charge                     :                     0
          spin                       :                   0.0

   ID    Z sym.   atoms
    1    6 C      1-3, 6, 9, 13, 15, 18-22, 27, 28, 32, 37-39
    2    1 H      4, 5, 7, 8, 10-12, 14, 16, 17, 23-25, 29, 30, 33-35, 40-47
    3    8 O      26, 36
    4   16 S      31

          :  Hamiltonian                  GFN2-xTB          :
 * total energy  :   -63.0994650 Eh     change       -0.4679350E-09 Eh
 * total energy  :   -63.1139978 Eh     change       -0.1453272E-01 Eh
 * total energy  :   -63.1175979 Eh     change       -0.3600104E-02 Eh
 * total energy  :   -63.1187509 Eh     change       -0.1153049E-02 Eh
 * total energy  :   -63.1193678 Eh     change       -0.6169078E-03 Eh
 * total energy  :   -63.1197335 Eh     change       -0.3656536E-03 Eh
 * total energy  :   -63.1200897 Eh     change       -0.3562485E-03 Eh
 * total energy  :   -63.1204255 Eh     change       -0.3358246E-03 Eh
 * total energy  :   -63.1207556 Eh     change       -0.3301004E-03 Eh
 * total energy  :   -63.1210262 Eh     change       -0.2705361E-03 Eh
 * total energy  :   -63.1262838 Eh     change       -0.1610214E-04 Eh
 * total energy  :   -63.1263157 Eh     change       -0.3191527E-04 Eh
 * total energy  :   -63.1263308 Eh     change       -0.1516004E-04 Eh
 * total energy  :   -63.1263528 Eh     change       -0.2194070E-04 Eh
 * total energy  :   -63.1263638 Eh     change       -0.1103036E-04 Eh
 * total energy  :   -63.1263692 Eh     change       -0.5361603E-05 Eh
 * total energy  :   -63.1263688 Eh     change        0.3875842E-06 Eh
 * total energy  :   -63.1263738 Eh     change       -0.5045027E-05 Eh
 * total energy  :   -63.1263777 Eh     change       -0.3907417E-05 Eh
   *** GEOMETRY OPTIMIZATION CONVERGED AFTER 47 ITERATIONS ***

 final structure:
================
47
 xtb: 6.4.0 (d4b70c2)
C         5.03820022490672   -5.98864871086190   -0.05113735657673
C         4.52334331828208   -6.39003323637820    1.34105632357562
C         4.95734450055606   -5.39411061226529    2.42842706197150
H         4.88107863538561   -7.38984693075365    1.59580812340410
H         3.43442923630197   -6.42073957340355    1.31917101176508
C         4.49890252757721   -4.02832739082269    2.03915147166766
H         6.04288232868247   -5.40577611893339    2.52970303548462
H         4.52536120350503   -5.69907796712712    3.38446852548444
C         6.35353426703019   -6.69235462469963   -0.37291938384568
H         7.08993100328839   -6.49240604836001    0.40192943190420
H         6.75555002633039   -6.34520204859909   -1.32201990786883
H         6.20545507208154   -7.76889849772584   -0.43721824548372
C         3.98486868080276   -6.29339393230766   -1.12515192895997
H         5.21146998749118   -4.91040804217299   -0.06370364805474
C         2.71915265878143   -5.49329248398142   -0.98406724863025
H         3.74509313079241   -7.35812937726095   -1.09729268745867
H         4.42254658028926   -6.07872637826025   -2.10439587027632
C         2.63182679201072   -4.17088172279543   -1.02612249147293
C         1.31221720832757   -3.44909518435729   -1.12030721350419
C         3.23083331107000   -3.60104930266290    1.96999246905864
C         3.02428200978074   -2.28669133647093    1.31353379028757
C         2.05861097987687   -4.37776802357278    2.48815780319573
H         1.43448075416038   -3.74750604635288    3.12050248803843
H         2.39624104325942   -5.21906527690295    3.08629050523432
H         1.44828520480099   -4.76000433872693    1.67158067059071
O         3.94803958692505   -1.53995185617490    1.07303015158350
C         1.60499614688957   -1.89966155325131    0.93254267374257
C         1.31361747688250   -2.01456451418525   -0.57016789657009
H         1.50046074011165   -0.84522832109115    1.19753116826122
H         0.85617750858013   -2.48169556670510    1.46218509171762
S        -0.47128281710305   -1.42866664317839   -0.78131913415538
C        -0.27988211219213    0.32899688539786   -0.36414536431004
H         0.75263154297902    0.61191505484407   -0.55045624092835
H        -0.54590559229642    0.49422519330845    0.67671173763719
H        -0.94783554285858    0.88977844651888   -1.01077248904794
O         2.17242423832127   -1.17749003165860   -1.25539620546042
C         1.05457326069952   -3.37763948462008   -2.60398456238852
C         1.41182919825858   -2.31279545438672   -3.30001120764021
C         1.98621460394146   -1.09260149358251   -2.65834029994838
H         5.25792525063493   -3.34411726141830    1.68132191113376
H         1.26376267788463   -2.24409172002076   -4.36675977298839
H         2.97606442297763   -0.86724757092225   -3.06998840544161
H         1.32589026533046   -0.23866877097003   -2.88422048077182
H         0.51640450136851   -4.01859688570128   -0.63109447833784
H         0.62837249277097   -4.25171598627087   -3.07013347804146
H         1.80677564771633   -6.06944965100734   -0.88452144585479
H         3.50624581680612   -3.54891960916918   -1.15420800172040

          :  Hamiltonian                  GFN2-xTB          :
         :: total energy             -63.126377726019 Eh    ::
         :: gradient norm              0.000497895246 Eh/a0 ::
         :: HOMO-LUMO gap              2.242032609278 eV    ::
         :: SCC energy               -63.991867147515 Eh    ::
         :: -> dispersion             -0.054432413095 Eh    ::
         :: repulsion energy           0.864180542790 Eh    ::

    * Orbital Energies and Occupations

         #    Occupation            Energy/Eh            Energy/eV
      -------------------------------------------------------------
         1        2.0000           -0.7131573             -19.4060
       ...           ...                  ...                  ...
        46        2.0000           -0.4515105             -12.2862
        47        2.0000           -0.4454719             -12.1219
        48        2.0000           -0.4410590             -12.0018
        49        2.0000           -0.4354924             -11.8504
        50        2.0000           -0.4299407             -11.6993
        51        2.0000           -0.4231568             -11.5147
        52        2.0000           -0.4181304             -11.3779
        53        2.0000           -0.4064230             -11.0593
        54        2.0000           -0.4042894             -11.0013
        55        2.0000           -0.4003458             -10.8940
        56        2.0000           -0.3882096             -10.5637
        57        2.0000           -0.3826149             -10.4115
        58        2.0000           -0.3547397              -9.6530 (HOMO)
        59                         -0.2723465              -7.4109 (LUMO)
        60                         -0.2235110              -6.0820
        61                         -0.2022667              -5.5040
        62                         -0.1908651              -5.1937
        63                         -0.1707673              -4.6468
        64                         -0.1464876              -3.9861
        65                         -0.0055952              -0.1523
        66                         -0.0025599              -0.0697
        67                          0.0130497               0.3551
        68                          0.0249869               0.6799
        69                          0.0561997               1.5293
       ...                                ...                  ...
       115                          0.6706274              18.2487
      -------------------------------------------------------------
                  HL-Gap            0.0823932 Eh            2.2420 eV

     #   Z          covCN         q      C6AA      α(0)
     1   6 C        3.851    -0.017    20.848     6.494
     2   6 C        3.809    -0.063    21.708     6.632
     3   6 C        3.804    -0.057    21.588     6.615
     4   1 H        0.924     0.037     2.483     2.464
     5   1 H        0.925     0.043     2.406     2.426
     6   6 C        2.912    -0.018    28.465     8.749
     7   1 H        0.924     0.041     2.432     2.439
     8   1 H        0.924     0.043     2.409     2.427
     9   6 C        3.755    -0.106    22.577     6.775
    10   1 H        0.925     0.038     2.472     2.459
    11   1 H        0.925     0.035     2.521     2.483
    12   1 H        0.925     0.034     2.534     2.489
    13   6 C        3.808    -0.063    21.708     6.632
    14   1 H        0.924     0.041     2.432     2.439
    15   6 C        2.889    -0.042    29.037     8.835
    16   1 H        0.924     0.036     2.501     2.473
    17   1 H        0.924     0.043     2.410     2.428
    18   6 C        2.912    -0.042    29.032     8.835
    19   6 C        3.918    -0.020    20.872     6.493
    20   6 C        2.940    -0.023    28.567     8.766
    21   6 C        2.829     0.228    23.211     7.895
    22   6 C        3.756    -0.109    22.635     6.784
    23   1 H        0.925     0.045     2.383     2.414
    24   1 H        0.925     0.052     2.292     2.368
    25   1 H        0.925     0.049     2.331     2.387
    26   8 O        0.858    -0.368    21.060     6.153
    27   6 C        3.848    -0.089    22.157     6.695
    28   6 C        3.791     0.199    17.474     5.953
    29   1 H        0.924     0.073     2.057     2.243
    30   1 H        0.925     0.057     2.237     2.339
    31  16 S        2.036    -0.269   152.627    20.793
    32   6 C        3.744    -0.042    21.399     6.599
    33   1 H        0.925     0.063     2.162     2.299
    34   1 H        0.925     0.046     2.374     2.410
    35   1 H        0.925     0.054     2.272     2.357
    36   8 O        1.710    -0.293    18.865     5.864
    37   6 C        2.922    -0.029    28.718     8.788
    38   6 C        2.891    -0.049    29.227     8.864
    39   6 C        3.702     0.091    19.228     6.270
    40   1 H        0.925     0.063     2.166     2.302
    41   1 H        0.926     0.039     2.456     2.451
    42   1 H        0.924     0.056     2.242     2.342
    43   1 H        0.923     0.043     2.415     2.430
    44   1 H        0.924     0.041     2.438     2.442
    45   1 H        0.926     0.039     2.467     2.456
    46   1 H        0.925     0.027     2.626     2.534
    47   1 H        0.926     0.042     2.423     2.434

Wiberg/Mayer (AO) data.
largest (>0.10) Wiberg bond orders for each atom

     #   Z sym  total        # sym  WBO       # sym  WBO       # sym  WBO
 ---------------------------------------------------------------------------
     1   6 C    3.993 --     9 C    1.010     2 C    0.993    13 C    0.983
                            14 H    0.961
     2   6 C    3.994 --     1 C    0.993     3 C    0.981     4 H    0.976
                             5 H    0.973
     3   6 C    3.997 --     6 C    1.034     2 C    0.981     7 H    0.978
                             8 H    0.960
     4   1 H    0.998 --     2 C    0.976
     5   1 H    0.998 --     2 C    0.973
     6   6 C    3.982 --    20 C    1.788     3 C    1.034    40 H    0.960
     7   1 H    0.998 --     3 C    0.978
     8   1 H    0.998 --     3 C    0.960
     9   6 C    3.996 --     1 C    1.010    11 H    0.986    12 H    0.986
                            10 H    0.985
    10   1 H    0.998 --     9 C    0.985
    11   1 H    0.999 --     9 C    0.986
    12   1 H    0.999 --     9 C    0.986
    13   6 C    3.996 --    15 C    1.019     1 C    0.983    16 H    0.979
                            17 H    0.961
    14   1 H    0.998 --     1 C    0.961
    15   6 C    3.989 --    18 C    1.910    13 C    1.019    46 H    0.966
    16   1 H    0.998 --    13 C    0.979
    17   1 H    0.997 --    13 C    0.961
    18   6 C    3.983 --    15 C    1.910    19 C    0.985    47 H    0.962
    19   6 C    3.995 --    18 C    0.985    37 C    0.984    28 C    0.962
                            44 H    0.957
    20   6 C    3.985 --     6 C    1.788    21 C    1.035    22 C    1.026
    21   6 C    3.927 --    26 O    1.811    20 C    1.035    27 C    0.972
    22   6 C    3.996 --    20 C    1.026    24 H    0.978    23 H    0.972
                            25 H    0.966
    23   1 H    0.998 --    22 C    0.972
    24   1 H    0.997 --    22 C    0.978
    25   1 H    0.998 --    22 C    0.966
    26   8 O    2.066 --    21 C    1.811
    27   6 C    3.992 --    21 C    0.972    30 H    0.969    28 C    0.966
                            29 H    0.955
    28   6 C    3.937 --    36 O    1.029    27 C    0.966    19 C    0.962
                            31 S    0.882
    29   1 H    0.994 --    27 C    0.955
    30   1 H    0.997 --    27 C    0.969
    31  16 S    2.067 --    32 C    1.015    28 C    0.882
    32   6 C    3.977 --    31 S    1.015    34 H    0.986    35 H    0.982
                            33 H    0.976
    33   1 H    0.996 --    32 C    0.976
    34   1 H    0.998 --    32 C    0.986
    35   1 H    0.997 --    32 C    0.982
    36   8 O    2.163 --    28 C    1.029    39 C    0.966
    37   6 C    3.988 --    38 C    1.913    19 C    0.984    45 H    0.967
    38   6 C    3.989 --    37 C    1.913    39 C    1.022    41 H    0.964
    39   6 C    3.949 --    38 C    1.022    36 O    0.966    42 H    0.954
                            43 H    0.950
    40   1 H    0.996 --     6 C    0.960
    41   1 H    0.998 --    38 C    0.964
    42   1 H    0.997 --    39 C    0.954
    43   1 H    0.997 --    39 C    0.950
    44   1 H    0.998 --    19 C    0.957
    45   1 H    0.998 --    37 C    0.967
    46   1 H    0.999 --    15 C    0.966
    47   1 H    0.998 --    18 C    0.962
 ---------------------------------------------------------------------------

molecular dipole:
                 x           y           z       tot (Debye)
 q only:       -0.005      -1.112       0.089
   full:        0.035      -0.952       0.057       2.426

           -------------------------------------------------
          | TOTAL ENERGY              -63.126377726019 Eh   |
          | GRADIENT NORM               0.000497895246 Eh/α |
          | HOMO-LUMO GAP               2.242032609278 eV   |
           -------------------------------------------------

 * finished run on 2021/06/02 at 09:35:11.899
