   * xtb version 6.4.0 (d4b70c2) compiled by 'ehlert@majestix' on 2021-02-01
          program call               : xtb -c 0 -u 0 -a 1.0 --iterations 100 --opt normal --namespace XJMYWACPKIORJK-SMLDIACYSA-N /home/zhao922/bin/Github/YARP/version2.0/CONF_GEN/SAAA//opt-folder/XJMYWACPKIORJK-SMLDIACYSA-N.xyz
          number of atoms            :                    47
          number of electrons        :                   116
          charge                     :                     0
          spin                       :                   0.0

   ID    Z sym.   atoms
    1    6 C      1-3, 6, 9, 13, 15, 18-22, 27, 28, 32, 37-39
    2    1 H      4, 5, 7, 8, 10-12, 14, 16, 17, 23-25, 29, 30, 33-35, 40-47
    3    8 O      26, 36
    4   16 S      31

          :  Hamiltonian                  GFN2-xTB          :
 * total energy  :   -63.0933626 Eh     change       -0.1685599E-08 Eh
 * total energy  :   -63.1112458 Eh     change       -0.1788320E-01 Eh
 * total energy  :   -63.1163296 Eh     change       -0.5083801E-02 Eh
 * total energy  :   -63.1187056 Eh     change       -0.2376018E-02 Eh
 * total energy  :   -63.1207395 Eh     change       -0.2033906E-02 Eh
 * total energy  :   -63.1226419 Eh     change       -0.1902391E-02 Eh
 * total energy  :   -63.1243612 Eh     change       -0.1719279E-02 Eh
 * total energy  :   -63.1258727 Eh     change       -0.1511524E-02 Eh
 * total energy  :   -63.1270293 Eh     change       -0.1156526E-02 Eh
 * total energy  :   -63.1278848 Eh     change       -0.8555542E-03 Eh
 * total energy  :   -63.1361488 Eh     change       -0.9191744E-05 Eh
 * total energy  :   -63.1361576 Eh     change       -0.8789965E-05 Eh
 * total energy  :   -63.1361670 Eh     change       -0.9333749E-05 Eh
 * total energy  :   -63.1361750 Eh     change       -0.7995966E-05 Eh
 * total energy  :   -63.1361826 Eh     change       -0.7620672E-05 Eh
 * total energy  :   -63.1361885 Eh     change       -0.5880773E-05 Eh
 * total energy  :   -63.1361873 Eh     change        0.1133213E-05 Eh
 * total energy  :   -63.1361874 Eh     change       -0.3577887E-07 Eh
 * total energy  :   -63.1361923 Eh     change       -0.4903526E-05 Eh
   *** GEOMETRY OPTIMIZATION CONVERGED AFTER 62 ITERATIONS ***

 final structure:
================
47
 xtb: 6.4.0 (d4b70c2)
C         5.03815908862736   -6.44643749251674   -0.60885778730098
C         4.70502917941077   -6.27194304128020    0.88779806240013
C         5.10775476748011   -4.89646096076257    1.45102500044362
H         5.22055216401384   -7.04040991518250    1.46849547940111
H         3.63572688534253   -6.41513741925398    1.03902668431296
C         4.46813990702918   -3.78291094318911    0.67630845696364
H         6.19283606268622   -4.79485288921742    1.39068713322674
H         4.82952333599369   -4.85309428862652    2.50591589677238
C         6.04832002419580   -7.57345530159028   -0.81580307340642
H         6.95964082976394   -7.37510161833231   -0.25602523057378
H         6.30851454505417   -7.66922673021969   -1.86789227730476
H         5.63666227525777   -8.52302029696127   -0.47867525478898
C         3.77695312652899   -6.71807903082080   -1.45554541515798
H         5.48355877300022   -5.51896716363847   -0.97616803158198
C         2.74814767530958   -5.64296574509940   -1.27001638018830
H         3.35945160191691   -7.68698535354611   -1.17536384834325
H         4.07691843976467   -6.76931928321241   -2.50494679755077
C         2.88420365531705   -4.41026980610055   -1.73008794451010
C         1.97526778294770   -3.26447786031900   -1.37934524655983
C         3.21342550310366   -3.35726937635588    0.77641984837959
C         2.67017660082725   -2.39543936217935   -0.28099964534646
C         2.24506348835505   -3.88282123531341    1.79607832567499
H         1.28258136118262   -4.11348024903273    1.34346270982446
H         2.08707495492248   -3.15134480630726    2.58916486600540
H         2.62948149724156   -4.78738930976312    2.25363948736859
O         3.78014193797349   -1.72007485492664   -0.83208494318745
C         1.67611412937614   -1.38625213856795    0.37143649632385
C         0.77404256811267   -0.62520625803761   -0.55010283049159
H         2.28901049629393   -0.66519706968041    0.91930493355194
H         1.03744396974026   -1.92873430657333    1.06455069993453
S        -0.75816666695444   -1.48631867884423   -0.85310812702110
C        -1.57142299953473   -0.33549615312608   -1.98673841648196
H        -0.97827985966724    0.57734585066812   -1.98263834298184
H        -2.57745044591327   -0.14972086792814   -1.62691267862604
H        -1.59601298878074   -0.77537258904807   -2.97928587357897
O         0.94830425642620    0.47911222663584   -0.98961419316888
C         1.72477835996506   -2.42883683880615   -2.59758004865236
C         2.45925889522035   -1.36132606802016   -2.86360013334565
C         3.52374925534889   -0.87454982845254   -1.93590950543405
H         5.08610804772317   -3.33132980726438   -0.08385840640409
H         2.29894957545348   -0.75447526004184   -3.74214274616557
H         4.48072801570867   -0.79876332949663   -2.46530614947299
H         3.25743593553496    0.13663219127601   -1.58829776929899
H         1.03273412796250   -3.65065498789592   -0.98125703608439
H         0.94843033352492   -2.76734493848971   -3.26847701333236
H         1.88597141043993   -5.89353328627407   -0.66627346272907
H         3.73969812076775   -4.14337352828065   -2.33505947151494

          :  Hamiltonian                  GFN2-xTB          :
         :: total energy             -63.136192266621 Eh    ::
         :: gradient norm              0.000741161071 Eh/a0 ::
         :: HOMO-LUMO gap              3.232691994008 eV    ::
         :: SCC energy               -64.004889834665 Eh    ::
         :: -> dispersion             -0.055572181790 Eh    ::
         :: repulsion energy           0.867616666079 Eh    ::

    * Orbital Energies and Occupations

         #    Occupation            Energy/Eh            Energy/eV
      -------------------------------------------------------------
         1        2.0000           -0.7312722             -19.8989
       ...           ...                  ...                  ...
        46        2.0000           -0.4400434             -11.9742
        47        2.0000           -0.4369433             -11.8898
        48        2.0000           -0.4336199             -11.7994
        49        2.0000           -0.4282480             -11.6532
        50        2.0000           -0.4239255             -11.5356
        51        2.0000           -0.4161813             -11.3249
        52        2.0000           -0.4112316             -11.1902
        53        2.0000           -0.4050802             -11.0228
        54        2.0000           -0.4032632             -10.9734
        55        2.0000           -0.3962245             -10.7818
        56        2.0000           -0.3875160             -10.5448
        57        2.0000           -0.3777929             -10.2803
        58        2.0000           -0.3765691             -10.2470 (HOMO)
        59                         -0.2577699              -7.0143 (LUMO)
        60                         -0.2112609              -5.7487
        61                         -0.2068170              -5.6278
        62                         -0.1979803              -5.3873
        63                         -0.1920556              -5.2261
        64                         -0.1448541              -3.9417
        65                         -0.0125864              -0.3425
        66                         -0.0032140              -0.0875
        67                          0.0133343               0.3628
        68                          0.0204916               0.5576
        69                          0.0492393               1.3399
       ...                                ...                  ...
       115                          0.6516017              17.7310
      -------------------------------------------------------------
                  HL-Gap            0.1187992 Eh            3.2327 eV

     #   Z          covCN         q      C6AA      α(0)
     1   6 C        3.850    -0.016    20.831     6.492
     2   6 C        3.803    -0.063    21.713     6.634
     3   6 C        3.803    -0.057    21.599     6.617
     4   1 H        0.924     0.035     2.521     2.483
     5   1 H        0.925     0.038     2.482     2.464
     6   6 C        2.898    -0.045    29.105     8.846
     7   1 H        0.924     0.036     2.507     2.476
     8   1 H        0.924     0.035     2.511     2.478
     9   6 C        3.755    -0.106    22.572     6.774
    10   1 H        0.925     0.036     2.500     2.473
    11   1 H        0.925     0.033     2.541     2.493
    12   1 H        0.925     0.033     2.542     2.494
    13   6 C        3.808    -0.062    21.690     6.630
    14   1 H        0.924     0.040     2.449     2.447
    15   6 C        2.890    -0.040    28.983     8.826
    16   1 H        0.924     0.034     2.527     2.486
    17   1 H        0.924     0.038     2.477     2.461
    18   6 C        2.900    -0.038    28.951     8.822
    19   6 C        3.865    -0.025    20.975     6.513
    20   6 C        2.943    -0.012    28.306     8.726
    21   6 C        3.799     0.146    18.232     6.080
    22   6 C        3.757    -0.111    22.679     6.790
    23   1 H        0.925     0.042     2.428     2.437
    24   1 H        0.924     0.044     2.391     2.418
    25   1 H        0.925     0.055     2.255     2.348
    26   8 O        1.701    -0.316    19.274     5.927
    27   6 C        3.850    -0.094    22.256     6.710
    28   6 C        2.805     0.263    22.574     7.784
    29   1 H        0.924     0.072     2.067     2.248
    30   1 H        0.925     0.071     2.079     2.255
    31  16 S        2.013    -0.162   147.878    20.467
    32   6 C        3.745    -0.054    21.609     6.631
    33   1 H        0.925     0.086     1.922     2.168
    34   1 H        0.925     0.061     2.182     2.310
    35   1 H        0.925     0.058     2.227     2.334
    36   8 O        0.877    -0.374    21.165     6.169
    37   6 C        2.901    -0.035    28.875     8.811
    38   6 C        2.891    -0.050    29.231     8.864
    39   6 C        3.696     0.085    19.336     6.290
    40   1 H        0.926     0.051     2.312     2.378
    41   1 H        0.926     0.033     2.543     2.494
    42   1 H        0.924     0.051     2.310     2.377
    43   1 H        0.923     0.047     2.354     2.399
    44   1 H        0.924     0.041     2.436     2.441
    45   1 H        0.926     0.030     2.587     2.515
    46   1 H        0.925     0.028     2.621     2.532
    47   1 H        0.925     0.039     2.464     2.455

Wiberg/Mayer (AO) data.
largest (>0.10) Wiberg bond orders for each atom

     #   Z sym  total        # sym  WBO       # sym  WBO       # sym  WBO
 ---------------------------------------------------------------------------
     1   6 C    3.993 --     9 C    1.010     2 C    0.992    13 C    0.977
                            14 H    0.967
     2   6 C    3.995 --     1 C    0.992     3 C    0.988     4 H    0.976
                             5 H    0.975
     3   6 C    3.996 --     6 C    1.021     2 C    0.988     7 H    0.978
                             8 H    0.969
     4   1 H    0.998 --     2 C    0.976
     5   1 H    0.999 --     2 C    0.975
     6   6 C    3.985 --    20 C    1.884     3 C    1.021    40 H    0.960
     7   1 H    0.998 --     3 C    0.978
     8   1 H    0.998 --     3 C    0.969
     9   6 C    3.996 --     1 C    1.010    12 H    0.987    11 H    0.986
                            10 H    0.986
    10   1 H    0.998 --     9 C    0.986
    11   1 H    0.999 --     9 C    0.986
    12   1 H    0.999 --     9 C    0.987
    13   6 C    3.995 --    15 C    1.021    16 H    0.978     1 C    0.977
                            17 H    0.968
    14   1 H    0.998 --     1 C    0.967
    15   6 C    3.987 --    18 C    1.923    13 C    1.021    46 H    0.966
    16   1 H    0.998 --    13 C    0.978
    17   1 H    0.998 --    13 C    0.968
    18   6 C    3.986 --    15 C    1.923    19 C    0.992    47 H    0.964
    19   6 C    3.995 --    37 C    1.007    18 C    0.992    44 H    0.955
                            21 C    0.921
    20   6 C    3.979 --     6 C    1.884    22 C    1.024    21 C    0.967
    21   6 C    3.946 --    26 O    0.981    20 C    0.967    27 C    0.932
                            19 C    0.921
    22   6 C    3.996 --    20 C    1.024    25 H    0.976    23 H    0.973
                            24 H    0.967
    23   1 H    0.998 --    22 C    0.973
    24   1 H    0.998 --    22 C    0.967
    25   1 H    0.996 --    22 C    0.976
    26   8 O    2.097 --    21 C    0.981    39 C    0.976
    27   6 C    3.991 --    28 C    1.005    29 H    0.960    30 H    0.954
                            21 C    0.932
    28   6 C    3.930 --    36 O    1.800    31 S    1.056    27 C    1.005
    29   1 H    0.994 --    27 C    0.960
    30   1 H    0.995 --    27 C    0.954
    31  16 S    2.373 --    28 C    1.056    32 C    1.013    36 O    0.209
    32   6 C    3.968 --    31 S    1.013    35 H    0.983    34 H    0.982
                            33 H    0.966
    33   1 H    0.993 --    32 C    0.966
    34   1 H    0.996 --    32 C    0.982
    35   1 H    0.996 --    32 C    0.983
    36   8 O    2.129 --    28 C    1.800    31 S    0.209
    37   6 C    3.990 --    38 C    1.906    19 C    1.007    45 H    0.966
    38   6 C    3.989 --    37 C    1.906    39 C    1.022    41 H    0.966
    39   6 C    3.954 --    38 C    1.022    26 O    0.976    42 H    0.954
                            43 H    0.946
    40   1 H    0.997 --     6 C    0.960
    41   1 H    0.997 --    38 C    0.966
    42   1 H    0.997 --    39 C    0.954
    43   1 H    0.997 --    39 C    0.946
    44   1 H    0.998 --    19 C    0.955
    45   1 H    0.998 --    37 C    0.966
    46   1 H    0.999 --    15 C    0.966
    47   1 H    0.998 --    18 C    0.964
 ---------------------------------------------------------------------------

molecular dipole:
                 x           y           z       tot (Debye)
 q only:       -0.125      -0.927       0.139
   full:       -0.257      -0.561      -0.068       1.577

           -------------------------------------------------
          | TOTAL ENERGY              -63.136192266621 Eh   |
          | GRADIENT NORM               0.000741161071 Eh/α |
          | HOMO-LUMO GAP               3.232691994008 eV   |
           -------------------------------------------------

 * finished run on 2021/06/02 at 09:35:16.480
