   * xtb version 6.4.0 (d4b70c2) compiled by 'ehlert@majestix' on 2021-02-01
          program call               : xtb -c 0 -u 0 -a 1.0 --iterations 100 --opt normal --namespace YNGRJNAPTZJALI-FMCLSXCISA-N /home/zhao922/bin/Github/YARP/version2.0/CONF_GEN/SAAA/opt-folder/YNGRJNAPTZJALI-FMCLSXCISA-N.xyz
          number of atoms            :                    56
          number of electrons        :                   164
          charge                     :                     0
          spin                       :                   0.0

   ID    Z sym.   atoms
    1    6 C      1-3, 8-10, 13-15, 20-22, 44-49, 54
    2    8 O      4-6, 16, 18, 19, 55
    3    7 N      7, 11, 12, 17
    4    1 H      23-43, 50-53, 56

          :  Hamiltonian                  GFN2-xTB          :
 * total energy  :   -94.1558870 Eh     change       -0.1989520E-12 Eh
   *** GEOMETRY OPTIMIZATION CONVERGED AFTER 1 ITERATIONS ***

 final structure:
================
56
 xtb: 6.4.0 (d4b70c2)
C         0.96554717000000   -2.74177404000000    0.17727162000000
C         1.16832473000000   -4.23932533000000   -0.00732709000000
C        -0.46061281000000   -2.35403843000000   -0.23247501000000
O        -0.76651547000000   -2.21196531000000   -1.41317611000000
O         0.78974222000000   -0.08232140000000   -0.23277365000000
O         1.13933489000000   -1.67997875000000   -3.47719252000000
N         1.87833775000000   -1.99667252000000   -0.67016258000000
C         1.62665881000000   -0.68879064000000   -0.88332230000000
C         2.37922722000000   -0.08253095000000   -2.04904988000000
C         1.46157352000000   -0.33046622000000   -3.28822830000000
N         2.66627242000000    1.31187143000000   -1.80260606000000
N        -1.33469471000000   -2.24546140000000    0.76859922000000
C        -2.73149368000000   -1.90189817000000    0.56162553000000
C        -3.56891234000000   -2.45022378000000    1.70579585000000
C        -2.90516108000000   -0.36998391000000    0.44567555000000
O        -3.52031219000000    0.28546419000000    1.25867307000000
N        -2.33310336000000    0.14155747000000   -0.65984390000000
O        -0.12435088000000    2.47852209000000   -1.42526254000000
O        -0.74487029000000    2.09218531000000    0.71258859000000
C        -2.31928167000000    1.56416543000000   -0.93812611000000
C        -0.92534579000000    2.10978062000000   -0.61017735000000
C        -2.68748764000000    1.83544722000000   -2.38973753000000
H         1.13595318000000   -2.44910078000000    1.21971923000000
H         0.95804689000000   -4.51991736000000   -1.03782475000000
H         0.49839099000000   -4.78977759000000    0.64786629000000
H         2.19326218000000   -4.50971496000000    0.23480977000000
H         0.44076954000000   -1.93833373000000   -2.84620459000000
H         2.40667669000000   -2.50954705000000   -1.36001871000000
H         3.32503997000000   -0.61673321000000   -2.19997118000000
H         1.99583327000000   -0.00862597000000   -4.18793456000000
H         0.56381567000000    0.29166647000000   -3.17294626000000
H         1.81710516000000    1.78003880000000   -1.49465940000000
H         2.96744853000000    1.76219508000000   -2.66061170000000
H        -0.99018960000000   -2.21185341000000    1.71986703000000
H        -3.03182981000000   -2.34691827000000   -0.39498054000000
H        -4.61736502000000   -2.22765622000000    1.53113047000000
H        -3.27527027000000   -1.97537407000000    2.63888435000000
H        -3.44003035000000   -3.52618875000000    1.79034292000000
H        -1.76995087000000   -0.46097823000000   -1.24883764000000
H        -3.03797923000000    2.01625061000000   -0.24373634000000
H        -2.70025140000000    2.90535559000000   -2.57711561000000
H        -3.66832728000000    1.42247481000000   -2.60820543000000
H        -1.95399455000000    1.38066161000000   -3.05122924000000
C         0.51722359000000    2.23847332000000    1.26055916000000
C         0.94182574000000    1.24207740000000    2.15356321000000
C         1.35182380000000    3.29404991000000    0.93955873000000
C         2.21983146000000    1.32383645000000    2.69986160000000
C         3.04958206000000    2.38213520000000    2.38473633000000
C         2.61435278000000    3.36264491000000    1.50796419000000
H         1.02288834000000    4.04841454000000    0.24236527000000
H         4.03869646000000    2.44036060000000    2.81264321000000
H         3.26398492000000    4.18573378000000    1.25238262000000
H         2.53920017000000    0.54118576000000    3.37183802000000
C         0.06254598000000    0.10514941000000    2.41603172000000
O         0.40688003000000   -0.97371239000000    2.84721420000000
H        -0.99395228000000    0.30077798000000    2.17213985000000

          :  Hamiltonian                  GFN2-xTB          :
         :: total energy             -94.155887005880 Eh    ::
         :: gradient norm              0.000156861238 Eh/a0 ::
         :: HOMO-LUMO gap              1.879573977110 eV    ::
         :: SCC energy               -95.262705444054 Eh    ::
         :: -> dispersion             -0.069822664237 Eh    ::
         :: repulsion energy           1.103318158138 Eh    ::

    * Orbital Energies and Occupations

         #    Occupation            Energy/Eh            Energy/eV
      -------------------------------------------------------------
         1        2.0000           -0.7558114             -20.5667
       ...           ...                  ...                  ...
        70        2.0000           -0.4469740             -12.1628
        71        2.0000           -0.4396703             -11.9640
        72        2.0000           -0.4381608             -11.9230
        73        2.0000           -0.4321125             -11.7584
        74        2.0000           -0.4257723             -11.5859
        75        2.0000           -0.4212815             -11.4637
        76        2.0000           -0.4172998             -11.3553
        77        2.0000           -0.4070281             -11.0758
        78        2.0000           -0.4033205             -10.9749
        79        2.0000           -0.4023167             -10.9476
        80        2.0000           -0.3978738             -10.8267
        81        2.0000           -0.3929906             -10.6938
        82        2.0000           -0.3639578              -9.9038 (HOMO)
        83                         -0.2948847              -8.0242 (LUMO)
        84                         -0.2552011              -6.9444
        85                         -0.2358053              -6.4166
        86                         -0.2315560              -6.3010
        87                         -0.2160474              -5.8790
        88                         -0.2127620              -5.7895
        89                         -0.2089506              -5.6858
        90                         -0.1043633              -2.8399
        91                         -0.0134505              -0.3660
        92                         -0.0005930              -0.0161
        93                          0.0058913               0.1603
       ...                                ...                  ...
       146                          0.6791493              18.4806
      -------------------------------------------------------------
                  HL-Gap            0.0690731 Eh            1.8796 eV

     #   Z          covCN         q      C6AA      α(0)
     1   6 C        3.801     0.028    20.102     6.383
     2   6 C        3.757    -0.117    22.785     6.806
     3   6 C        2.758     0.279    22.280     7.730
     4   8 O        0.858    -0.478    23.308     6.473
     5   8 O        0.859    -0.472    23.178     6.455
     6   8 O        1.654    -0.462    22.089     6.345
     7   7 N        2.694    -0.182    24.946     7.418
     8   6 C        2.771     0.281    22.239     7.723
     9   6 C        3.784     0.020    20.261     6.412
    10   6 C        3.680     0.080    19.457     6.318
    11   7 N        2.632    -0.352    29.081     8.009
    12   7 N        2.690    -0.173    24.740     7.387
    13   6 C        3.793     0.023    20.196     6.400
    14   6 C        3.757    -0.115    22.764     6.803
    15   6 C        2.752     0.269    22.451     7.759
    16   8 O        0.858    -0.423    22.140     6.309
    17   7 N        2.692    -0.177    24.826     7.400
    18   8 O        0.856    -0.392    21.519     6.219
    19   8 O        1.709    -0.231    17.831     5.701
    20   6 C        3.791     0.024    20.179     6.397
    21   6 C        2.717     0.365    20.807     7.467
    22   6 C        3.756    -0.118    22.807     6.809
    23   1 H        0.924     0.072     2.062     2.246
    24   1 H        0.925     0.061     2.186     2.312
    25   1 H        0.925     0.056     2.245     2.343
    26   1 H        0.925     0.059     2.210     2.325
    27   1 H        0.803     0.318     0.670     1.286
    28   1 H        0.860     0.194     1.139     1.672
    29   1 H        0.924     0.040     2.450     2.448
    30   1 H        0.924     0.043     2.406     2.426
    31   1 H        0.923     0.024     2.678     2.559
    32   1 H        0.860     0.177     1.230     1.737
    33   1 H        0.860     0.145     1.438     1.878
    34   1 H        0.860     0.208     1.065     1.616
    35   1 H        0.924     0.069     2.094     2.263
    36   1 H        0.925     0.066     2.130     2.282
    37   1 H        0.925     0.066     2.135     2.285
    38   1 H        0.925     0.049     2.328     2.386
    39   1 H        0.860     0.206     1.077     1.626
    40   1 H        0.924     0.093     1.847     2.125
    41   1 H        0.925     0.061     2.192     2.315
    42   1 H        0.925     0.059     2.208     2.324
    43   1 H        0.925     0.062     2.179     2.308
    44   6 C        2.877     0.161    24.526     8.119
    45   6 C        2.969    -0.009    28.242     8.717
    46   6 C        2.914    -0.039    28.968     8.826
    47   6 C        2.923    -0.014    28.359     8.733
    48   6 C        2.916    -0.029    28.716     8.787
    49   6 C        2.923    -0.016    28.417     8.742
    50   1 H        0.926     0.068     2.108     2.270
    51   1 H        0.926     0.054     2.273     2.358
    52   1 H        0.926     0.058     2.227     2.334
    53   1 H        0.926     0.068     2.103     2.268
    54   6 C        2.768     0.223    23.295     7.904
    55   8 O        0.856    -0.367    21.038     6.150
    56   1 H        0.923     0.037     2.487     2.466

Wiberg/Mayer (AO) data.
largest (>0.10) Wiberg bond orders for each atom

     #   Z sym  total        # sym  WBO       # sym  WBO       # sym  WBO
 ---------------------------------------------------------------------------
     1   6 C    3.969 --     2 C    0.997     7 N    0.980    23 H    0.949
                             3 C    0.934
     2   6 C    3.989 --     1 C    0.997    24 H    0.983    25 H    0.983
                            26 H    0.981
     3   6 C    3.949 --     4 O    1.599    12 N    1.316     1 C    0.934
     4   8 O    1.979 --     3 C    1.599    12 N    0.186
     5   8 O    1.987 --     8 C    1.640     7 N    0.183
     6   8 O    1.959 --    10 C    1.019    27 H    0.851
     7   7 N    3.431 --     8 C    1.261     1 C    0.980    28 H    0.928
                             5 O    0.183
     8   6 C    3.944 --     5 O    1.640     7 N    1.261     9 C    0.959
     9   6 C    3.988 --    11 N    1.033     8 C    0.959    29 H    0.959
                            10 C    0.928
    10   6 C    3.962 --     6 O    1.019    31 H    0.971    30 H    0.969
                             9 C    0.928
    11   7 N    3.009 --     9 C    1.033    33 H    0.963    32 H    0.935
    12   7 N    3.477 --     3 C    1.316    13 C    0.972    34 H    0.913
                             4 O    0.186
    13   6 C    3.961 --    14 C    1.009    12 N    0.972    35 H    0.951
                            15 C    0.914
    14   6 C    3.989 --    13 C    1.009    38 H    0.985    37 H    0.982
                            36 H    0.981
    15   6 C    3.953 --    16 O    1.691    17 N    1.270    13 C    0.914
    16   8 O    2.024 --    15 C    1.691    17 N    0.203
    17   7 N    3.459 --    15 C    1.270    20 C    0.978    39 H    0.908
                            16 O    0.203
    18   8 O    2.063 --    21 C    1.759    19 O    0.164
    19   8 O    2.374 --    21 C    1.117    44 C    0.980    18 O    0.164
    20   6 C    3.966 --    22 C    1.004    17 N    0.978    40 H    0.943
                            21 C    0.926
    21   6 C    3.909 --    18 O    1.759    19 O    1.117    20 C    0.926
    22   6 C    3.988 --    20 C    1.004    42 H    0.984    41 H    0.982
                            43 H    0.982
    23   1 H    0.995 --     1 C    0.949
    24   1 H    0.996 --     2 C    0.983
    25   1 H    0.996 --     2 C    0.983
    26   1 H    0.996 --     2 C    0.981
    27   1 H    0.899 --     6 O    0.851
    28   1 H    0.962 --     7 N    0.928
    29   1 H    0.998 --     9 C    0.959
    30   1 H    0.998 --    10 C    0.969
    31   1 H    0.999 --    10 C    0.971
    32   1 H    0.969 --    11 N    0.935
    33   1 H    0.978 --    11 N    0.963
    34   1 H    0.956 --    12 N    0.913
    35   1 H    0.995 --    13 C    0.951
    36   1 H    0.995 --    14 C    0.981
    37   1 H    0.996 --    14 C    0.982
    38   1 H    0.997 --    14 C    0.985
    39   1 H    0.958 --    17 N    0.908
    40   1 H    0.991 --    20 C    0.943
    41   1 H    0.996 --    22 C    0.982
    42   1 H    0.996 --    22 C    0.984
    43   1 H    0.996 --    22 C    0.982
    44   6 C    3.921 --    46 C    1.417    45 C    1.309    19 O    0.980
    45   6 C    3.988 --    47 C    1.381    44 C    1.309    54 C    1.070
    46   6 C    3.988 --    49 C    1.425    44 C    1.417    50 H    0.965
                            47 C    0.101
    47   6 C    3.986 --    48 C    1.452    45 C    1.381    53 H    0.965
                            46 C    0.101
    48   6 C    3.990 --    47 C    1.452    49 C    1.432    51 H    0.969
    49   6 C    3.988 --    48 C    1.432    46 C    1.425    52 H    0.969
    50   1 H    0.995 --    46 C    0.965
    51   1 H    0.997 --    48 C    0.969
    52   1 H    0.996 --    49 C    0.969
    53   1 H    0.994 --    47 C    0.965
    54   6 C    3.916 --    55 O    1.827    45 C    1.070    56 H    0.930
    55   8 O    2.056 --    54 C    1.827
    56   1 H    0.998 --    54 C    0.930
 ---------------------------------------------------------------------------

molecular dipole:
                 x           y           z       tot (Debye)
 q only:        0.720      -0.349       0.466
   full:        0.655      -0.426       0.192       2.045

           -------------------------------------------------
          | TOTAL ENERGY              -94.155887005880 Eh   |
          | GRADIENT NORM               0.000156861238 Eh/α |
          | HOMO-LUMO GAP               1.879573977110 eV   |
           -------------------------------------------------

 * finished run on 2021/06/02 at 13:06:40.099
